cellI,x,y,z,sigma_xx,sigma_xy,sigma_xz,sigma_yy,sigma_yz,sigma_zz
0,0.000125,0.000125,0.000125,5.224268543,-0.03671593945,-0,5.209711946,-0,5.224236503
1,0.000375,0.000125,0.000125,6.639715511,-0.08045413123,-0,6.603758976,-0,6.639639936
2,0.000625,0.000125,0.000125,8.102913452,-0.1513249604,-0,8.062380765,-0,8.102692363
3,0.000875,0.000125,0.000125,9.601982213,-0.242613371,-0,9.558676378,-0,9.601553189
4,0.001125,0.000125,0.000125,11.12263821,-0.3518346443,-0,11.07627406,-0,11.12195856
5,0.001375,0.000125,0.000125,12.65126357,-0.4773071933,-0,12.60258427,-0,12.65028057
6,0.001625,0.000125,0.000125,14.1760883,-0.618281359,-0,14.12586054,-0,14.1747399
7,0.001875,0.000125,0.000125,15.6870307,-0.7740245529,-0,15.63528007,-0,15.68525648
8,0.002125,0.000125,0.000125,17.17497011,-0.9436878186,-0,17.12221667,-0,17.1727142
9,0.002375,0.000125,0.000125,18.63231639,-1.126241416,-0,18.57885947,-0,18.62952636
10,0.002625,0.000125,0.000125,20.05258559,-1.320622183,-0,19.99879298,-0,20.04921165
11,0.002875,0.000125,0.000125,21.4306402,-1.525786874,-0,21.37624108,-0,21.4266355
12,0.003125,0.000125,0.000125,22.76209023,-1.740797048,-0,22.70699222,-0,22.75741199
13,0.003375,0.000125,0.000125,24.04340254,-1.964701643,-0,23.98791363,-0,24.03801268
14,0.003625,0.000125,0.000125,25.27223244,-2.196538083,-0,25.2160194,-0,25.26609648
15,0.003875,0.000125,0.000125,26.44665238,-2.43530115,-0,26.38974639,-0,26.43973991
16,0.004125,0.000125,0.000125,27.56549091,-2.680006177,-0,27.50802093,-0,27.55777682
17,0.004375,0.000125,0.000125,28.62822494,-2.929726899,-0,28.57023492,-0,28.61968916
18,0.004625,0.000125,0.000125,29.63483185,-3.183607616,-0,29.57631267,-0,29.62545844
19,0.004875,0.000125,0.000125,30.58572527,-3.440849896,-0,30.52662235,-0,30.5755021
20,0.005125,0.000125,0.000125,31.48162903,-3.700656928,-0,31.42202772,-0,31.47054851
21,0.005375,0.000125,0.000125,32.32361681,-3.962267775,-0,32.26362923,-0,32.31167571
22,0.005625,0.000125,0.000125,33.11316703,-4.225015129,-0,33.05248915,-0,33.10036476
23,0.005875,0.000125,0.000125,33.85186104,-4.488318325,-0,33.79008204,-0,33.83819924
24,0.006125,0.000125,0.000125,34.54137432,-4.751639693,-0,34.47817726,-0,34.52685792
25,0.006375,0.000125,0.000125,35.18349761,-5.014467355,-0,35.118681,-0,35.16813511
26,0.006625,0.000125,0.000125,35.78014208,-5.2763235,-0,35.7135244,-0,35.76394476
27,0.006875,0.000125,0.000125,36.33328217,-5.536775293,-0,36.26468741,-0,36.31626338
28,0.007125,0.000125,0.000125,36.84491865,-5.795436556,-0,36.77419392,-0,36.82709353
29,0.007375,0.000125,0.000125,37.31704869,-6.05196268,-0,37.24410466,-0,37.29843443
30,0.007625,0.000125,0.000125,37.75167025,-6.306049396,-0,37.67645336,-0,37.73228633
31,0.007875,0.000125,0.000125,38.1507791,-6.557427557,-0,38.07320767,-0,38.13064662
32,0.008125,0.000125,0.000125,38.51633639,-6.805857327,-0,38.4362956,-0,38.49547692
33,0.008375,0.000125,0.000125,38.85024647,-7.051138512,-0,38.76761692,-0,38.82868158
34,0.008625,0.000125,0.000125,39.15434688,-7.293098267,-0,39.06903691,-0,39.13209829
35,0.008875,0.000125,0.000125,39.43041664,-7.531576615,-0,39.34235009,-0,39.40750695
36,0.009125,0.000125,0.000125,39.68018575,-7.766445575,-0,39.58924889,-0,39.6566385
37,0.009375,0.000125,0.000125,39.90531232,-7.997608538,-0,39.81136084,-0,39.88115084
38,0.009625,0.000125,0.000125,40.10736522,-8.224987437,-0,40.01027533,-0,40.08261215
39,0.009875,0.000125,0.000125,40.28783097,-8.448522939,-0,40.18752488,-0,40.26250887
40,0.010125,0.000125,0.000125,40.44812527,-8.668171746,-0,40.3445621,-0,40.42225721
41,0.010375,0.000125,0.000125,40.58959622,-8.883902201,-0,40.4827562,-0,40.56320552
42,0.010625,0.000125,0.000125,40.71352287,-9.09569356,-0,40.60339939,-0,40.68663264
43,0.010875,0.000125,0.000125,40.82111481,-9.303536647,-0,40.70771172,-0,40.79374783
44,0.011125,0.000125,0.000125,40.91351277,-9.507433596,-0,40.79684551,-0,40.88569146
45,0.011375,0.000125,0.000125,40.99179439,-9.707394346,-0,40.87188017,-0,40.96354084
46,0.011625,0.000125,0.000125,41.05696837,-9.903441077,-0,40.93384115,-0,41.02830434
47,0.011875,0.000125,0.000125,41.10998381,-10.09560141,-0,40.98368898,-0,41.08093068
48,0.012125,0.000125,0.000125,41.15173758,-10.28390653,-0,41.02231256,-0,41.12231623
49,0.012375,0.000125,0.000125,41.18306501,-10.46839025,-0,41.05055536,-0,41.15329603
50,0.012625,0.000125,0.000125,41.20474791,-10.64909417,-0,41.06920778,-0,41.17465191
51,0.012875,0.000125,0.000125,41.21751758,-10.82606454,-0,41.07900993,-0,41.18711527
52,0.013125,0.000125,0.000125,41.22205795,-10.99935286,-0,41.08065387,-0,41.19137001
53,0.013375,0.000125,0.000125,41.2190086,-11.16901359,-0,41.07478575,-0,41.18805537
54,0.013625,0.000125,0.000125,41.20896625,-11.33510159,-0,41.06201025,-0,41.17776766
55,0.013875,0.000125,0.000125,41.1924876,-11.49767206,-0,41.0428919,-0,41.16106334
56,0.014125,0.000125,0.000125,41.17009087,-11.65678244,-0,41.01795943,-0,41.13846046
57,0.014375,0.000125,0.000125,41.14225944,-11.81249067,-0,40.98770556,-0,41.11044224
58,0.014625,0.000125,0.000125,41.10944346,-11.96485143,-0,40.9525902,-0,41.07745891
59,0.014875,0.000125,0.000125,41.07206139,-12.11391769,-0,40.91304372,-0,41.03992946
60,0.015125,0.000125,0.000125,41.03050301,-12.25974358,-0,40.86946774,-0,40.99824459
61,0.015375,0.000125,0.000125,40.98513166,-12.40238424,-0,40.82223723,-0,40.95276865
62,0.015625,0.000125,0.000125,40.93628551,-12.54189411,-0,40.77170404,-0,40.90384089
63,0.015875,0.000125,0.000125,40.88427891,-12.6783264,-0,40.71819968,-0,40.85177691
64,0.016125,0.000125,0.000125,40.82940408,-12.81173264,-0,40.6620373,-0,40.79687058
65,0.016375,0.000125,0.000125,40.77193278,-12.94216256,-0,40.60351364,-0,40.73939568
66,0.016625,0.000125,0.000125,40.7121179,-13.06966374,-0,40.54291107,-0,40.67960753
67,0.016875,0.000125,0.000125,40.65019446,-13.19428159,-0,40.48050064,-0,40.61774407
68,0.017125,0.000125,0.000125,40.58638166,-13.31605908,-0,40.41654287,-0,40.55402793
69,0.017375,0.000125,0.000125,40.52088121,-13.43503806,-0,40.35129599,-0,40.48866488
70,0.017625,0.000125,0.000125,40.45388161,-13.55125869,-0,40.28501228,-0,40.42184807
71,0.017875,0.000125,0.000125,40.38556113,-13.66474502,-0,40.21793616,-0,40.35376181
72,0.018125,0.000125,0.000125,40.31609194,-13.77549317,-0,40.15029983,-0,40.28458743
73,0.018375,0.000125,0.000125,40.24564447,-13.88351909,-0,40.08232311,-0,40.2145066
74,0.018625,0.000125,0.000125,40.17437044,-13.98885918,-0,40.01425698,-0,40.14368155
75,0.018875,0.000125,0.000125,40.10240663,-14.09153157,-0,39.94637966,-0,40.07226051
76,0.019125,0.000125,0.000125,40.02988229,-14.19153469,-0,39.8789853,-0,40.00038825
77,0.019375,0.000125,0.000125,39.95692185,-14.28885352,-0,39.81238686,-0,39.92820907
78,0.019625,0.000125,0.000125,39.8836453,-14.38346211,-0,39.74692546,-0,39.85586704
79,0.019875,0.000125,0.000125,39.8101699,-14.47532309,-0,39.68297776,-0,39.78350824
80,0.020125,0.000125,0.000125,39.73661051,-14.56438966,-0,39.62096701,-0,39.71128239
81,0.020375,0.000125,0.000125,39.66307827,-14.65060944,-0,39.56137972,-0,39.63934296
82,0.020625,0.000125,0.000125,39.58968771,-14.73391847,-0,39.5047651,-0,39.56785873
83,0.020875,0.000125,0.000125,39.51654438,-14.81419804,-0,39.4517768,-0,39.49700926
84,0.021125,0.000125,0.000125,39.44394461,-14.89137784,-0,39.40281155,-0,39.42718128
85,0.021375,0.000125,0.000125,39.37981161,-14.96346844,-0,39.34317124,-0,39.36640796
86,0.021625,0.000125,0.000125,39.31946946,-15.02999398,-0,39.28358282,-0,39.3101227
87,0.021875,0.000125,0.000125,39.26101831,-15.08869593,-0,39.22936807,-0,39.25660798
88,0.022125,0.000125,0.000125,39.19351791,-15.14374625,-0,39.19969164,-0,39.19524191
89,0.022375,0.000125,0.000125,39.12043361,-15.18933722,-0,39.17473246,-0,39.12992002
90,0.022625,0.000125,0.000125,39.04923589,-15.22841667,-0,39.13813065,-0,39.06859234
91,0.022875,0.000125,0.000125,38.96214041,-15.24525929,-0,39.12537682,-0,38.99396619
92,0.023125,0.000125,0.000125,38.85924021,-15.23788857,-0,39.13431819,-0,38.90697288
93,0.023375,0.000125,0.000125,38.74088136,-15.19978765,-0,39.1599082,-0,38.80948754
94,0.023625,0.000125,0.000125,38.60460064,-15.11713966,-0,39.19870177,-0,38.70138383
95,0.023875,0.000125,0.000125,38.4321805,-14.9598224,-0,39.27198351,-0,38.56842938
96,0.024125,0.000125,0.000125,38.19868144,-14.67531557,-0,39.40024659,-0,38.39122872
97,0.024375,0.000125,0.000125,37.87081365,-14.1020859,-0,39.60008151,-0,38.14866618
98,0.024625,0.000125,0.000125,37.30183964,-13.10567299,-0,39.99895891,-0,37.71730137
99,0.024875,0.000125,0.000125,36.80452773,-9.833568691,-0,40.25984783,-0,37.08815458
100,0.000125,0.000375,0.000125,3.884521258,-0.4306982437,-0,4.068911709,-0,4.092856985
101,0.000375,0.000375,0.000125,3.931678177,-0.3021244763,-0,4.099390562,-0,4.099426929
102,0.000625,0.000375,0.000125,4.064497422,-0.1194865961,-0,4.090500384,-0,4.086547744
103,0.000875,0.000375,0.000125,4.122326661,-0.07253307722,-0,4.127182649,-0,4.126533188
104,0.001125,0.000375,0.000125,4.177558618,-0.05216092969,-0,4.175297136,-0,4.179147114
105,0.001375,0.000375,0.000125,4.238041423,-0.03576753208,-0,4.23132713,-0,4.238638929
106,0.001625,0.000375,0.000125,4.304065799,-0.02302397798,-0,4.294633803,-0,4.304222588
107,0.001875,0.000375,0.000125,4.375491248,-0.05318171964,-0,4.364566298,-0,4.375776712
108,0.002125,0.000375,0.000125,4.45271791,-0.08366667404,-0,4.44042682,-0,4.452720567
109,0.002375,0.000375,0.000125,4.535460442,-0.1140829611,-0,4.521727415,-0,4.534970863
110,0.002625,0.000375,0.000125,4.623321574,-0.1441235088,-0,4.608275061,-0,4.622220399
111,0.002875,0.000375,0.000125,4.715966148,-0.1752120654,-0,4.699789696,-0,4.714184284
112,0.003125,0.000375,0.000125,4.813148022,-0.20769751,-0,4.795769801,-0,4.810658314
113,0.003375,0.000375,0.000125,4.914541938,-0.2389116341,-0,4.895789133,-0,4.911364847
114,0.003625,0.000375,0.000125,5.018872476,-0.2695655177,-0,5.001432995,-0,5.014990463
115,0.003875,0.000375,0.000125,5.126661128,-0.3009213472,-0,5.110637236,-0,5.122029616
116,0.004125,0.000375,0.000125,5.23772734,-0.3332990814,-0,5.222681708,-0,5.232311556
117,0.004375,0.000375,0.000125,5.351657318,-0.3667207891,-0,5.337303339,-0,5.345437523
118,0.004625,0.000375,0.000125,5.468083683,-0.401202182,-0,5.454160097,-0,5.461044618
119,0.004875,0.000375,0.000125,5.586566225,-0.4367367495,-0,5.573093411,-0,5.578679376
120,0.005125,0.000375,0.000125,5.707745296,-0.4733533061,-0,5.691783648,-0,5.698975832
121,0.005375,0.000375,0.000125,5.832499141,-0.5115817949,-0,5.807449669,-0,5.822815263
122,0.005625,0.000375,0.000125,5.958005997,-0.5509284638,-0,5.924757195,-0,5.947387102
123,0.005875,0.000375,0.000125,6.082965754,-0.5913029277,-0,6.045374725,-0,6.071390851
124,0.006125,0.000375,0.000125,6.207648189,-0.6328313815,-0,6.167868883,-0,6.195093936
125,0.006375,0.000375,0.000125,6.332506585,-0.6756189557,-0,6.290481239,-0,6.318949522
126,0.006625,0.000375,0.000125,6.457273661,-0.7196542939,-0,6.412946906,-0,6.442690929
127,0.006875,0.000375,0.000125,6.58170319,-0.764884914,-0,6.535012445,-0,6.566072875
128,0.007125,0.000375,0.000125,6.705573524,-0.8112427216,-0,6.656430248,-0,6.688875408
129,0.007375,0.000375,0.000125,6.828655396,-0.8587405152,-0,6.777019716,-0,6.810873088
130,0.007625,0.000375,0.000125,6.950725339,-0.9074444635,-0,6.896637851,-0,6.931848171
131,0.007875,0.000375,0.000125,7.071608841,-0.957351169,-0,7.01510628,-0,7.051627859
132,0.008125,0.000375,0.000125,7.191161779,-1.008380447,-0,7.132250903,-0,7.170067218
133,0.008375,0.000375,0.000125,7.309247665,-1.060450689,-0,7.247939635,-0,7.2870281
134,0.008625,0.000375,0.000125,7.425774784,-1.113529138,-0,7.362012539,-0,7.402413337
135,0.008875,0.000375,0.000125,7.540625238,-1.167631875,-0,7.474404163,-0,7.5161065
136,0.009125,0.000375,0.000125,7.653679396,-1.222724692,-0,7.585087918,-0,7.627997466
137,0.009375,0.000375,0.000125,7.764897021,-1.27871014,-0,7.693939253,-0,7.738047987
138,0.009625,0.000375,0.000125,7.874238399,-1.335503105,-0,7.800884504,-0,7.846215337
139,0.009875,0.000375,0.000125,7.981658559,-1.393075329,-0,7.905894826,-0,7.952455814
140,0.010125,0.000375,0.000125,8.087123908,-1.45142303,-0,8.008953997,-0,8.056739295
141,0.010375,0.000375,0.000125,8.190616793,-1.510533882,-0,8.110053248,-0,8.159049979
142,0.010625,0.000375,0.000125,8.292133737,-1.570383572,-0,8.209192456,-0,8.259384907
143,0.010875,0.000375,0.000125,8.391681957,-1.630944351,-0,8.306382505,-0,8.357752078
144,0.011125,0.000375,0.000125,8.489278847,-1.692192913,-0,8.401644104,-0,8.454169549
145,0.011375,0.000375,0.000125,8.584949961,-1.754088239,-0,8.495007377,-0,8.548664962
146,0.011625,0.000375,0.000125,8.678732433,-1.816671025,-0,8.58650946,-0,8.641276286
147,0.011875,0.000375,0.000125,8.770665796,-1.879768374,-0,8.676193353,-0,8.73204571
148,0.012125,0.000375,0.000125,8.860803243,-1.943500935,-0,8.764113162,-0,8.821022875
149,0.012375,0.000375,0.000125,8.949199099,-2.007797603,-0,8.850328835,-0,8.908264466
150,0.012625,0.000375,0.000125,9.035908638,-2.072631245,-0,8.934909948,-0,8.993830294
151,0.012875,0.000375,0.000125,9.120993033,-2.137982066,-0,9.017927186,-0,9.077786061
152,0.013125,0.000375,0.000125,9.204522014,-2.203834426,-0,9.099447303,-0,9.160204903
153,0.013375,0.000375,0.000125,9.286570597,-2.270172124,-0,9.179540787,-0,9.241162696
154,0.013625,0.000375,0.000125,9.367215592,-2.336977269,-0,9.258285373,-0,9.320736116
155,0.013875,0.000375,0.000125,9.446535116,-2.404232168,-0,9.335762299,-0,9.399004545
156,0.014125,0.000375,0.000125,9.524611397,-2.471924137,-0,9.412050238,-0,9.476052186
157,0.014375,0.000375,0.000125,9.6015283,-2.540041014,-0,9.48723152,-0,9.5519634
158,0.014625,0.000375,0.000125,9.677366055,-2.608566458,-0,9.561398326,-0,9.626819259
159,0.014875,0.000375,0.000125,9.752201434,-2.677486017,-0,9.634645715,-0,9.700701111
160,0.015125,0.000375,0.000125,9.82611053,-2.746789945,-0,9.70706564,-0,9.77369245
161,0.015375,0.000375,0.000125,9.899169747,-2.816467713,-0,9.778747279,-0,9.845877035
162,0.015625,0.000375,0.000125,9.971454529,-2.886506618,-0,9.849778968,-0,9.917337163
163,0.015875,0.000375,0.000125,10.04303765,-2.956893648,-0,9.92024883,-0,9.988153164
164,0.016125,0.000375,0.000125,10.1139882,-3.027616164,-0,9.990244476,-0,10.05840316
165,0.016375,0.000375,0.000125,10.18437095,-3.098660942,-0,10.05985262,-0,10.12816264
166,0.016625,0.000375,0.000125,10.25424559,-3.170013295,-0,10.12915877,-0,10.1975039
167,0.016875,0.000375,0.000125,10.32366585,-3.241657513,-0,10.19824683,-0,10.26649547
168,0.017125,0.000375,0.000125,10.39267822,-3.313570481,-0,10.26719871,-0,10.33520157
169,0.017375,0.000375,0.000125,10.46132245,-3.385731825,-0,10.33609161,-0,10.40368276
170,0.017625,0.000375,0.000125,10.52963355,-3.458127226,-0,10.40499887,-0,10.47199266
171,0.017875,0.000375,0.000125,10.59764808,-3.530756311,-0,10.47397844,-0,10.54018312
172,0.018125,0.000375,0.000125,10.66535234,-3.603631576,-0,10.5431362,-0,10.60828366
173,0.018375,0.000375,0.000125,10.7326668,-3.67670265,-0,10.61263797,-0,10.67628656
174,0.018625,0.000375,0.000125,10.79959096,-3.749875436,-0,10.68247796,-0,10.74424651
175,0.018875,0.000375,0.000125,10.86608098,-3.823078354,-0,10.75270833,-0,10.81216427
176,0.019125,0.000375,0.000125,10.93205195,-3.896248286,-0,10.82339356,-0,10.88002037
177,0.019375,0.000375,0.000125,10.9973775,-3.969307213,-0,10.89459846,-0,10.94777866
178,0.019625,0.000375,0.000125,11.06188805,-4.042155855,-0,10.96638472,-0,11.01538054
179,0.019875,0.000375,0.000125,11.12536323,-4.114668493,-0,11.03880926,-0,11.08274
180,0.020125,0.000375,0.000125,11.18752339,-4.186679675,-0,11.11191627,-0,11.14974174
181,0.020375,0.000375,0.000125,11.24802451,-4.257980505,-0,11.18572521,-0,11.21623686
182,0.020625,0.000375,0.000125,11.30643532,-4.328290946,-0,11.26024623,-0,11.28201847
183,0.020875,0.000375,0.000125,11.3622149,-4.397267836,-0,11.33547729,-0,11.34679295
184,0.021125,0.000375,0.000125,11.41466934,-4.464471901,-0,11.41131651,-0,11.41018448
185,0.021375,0.000375,0.000125,11.46261864,-4.529349808,-0,11.48829789,-0,11.47149248
186,0.021625,0.000375,0.000125,11.50473856,-4.591301462,-0,11.56638351,-0,11.53020753
187,0.021875,0.000375,0.000125,11.53825014,-4.649129665,-0,11.64564296,-0,11.58452645
188,0.022125,0.000375,0.000125,11.56212637,-4.701172623,-0,11.72439186,-0,11.63411399
189,0.022375,0.000375,0.000125,11.57758281,-4.745866029,-0,11.80827814,-0,11.68111748
190,0.022625,0.000375,0.000125,11.58290577,-4.780911075,-0,11.89561004,-0,11.72536823
191,0.022875,0.000375,0.000125,11.57214641,-4.801573799,-0,11.99099354,-0,11.76340836
192,0.023125,0.000375,0.000125,11.54046418,-4.801192147,-0,12.09405832,-0,11.79372315
193,0.023375,0.000375,0.000125,11.48126497,-4.766009557,-0,12.20462793,-0,11.81293892
194,0.023625,0.000375,0.000125,11.38367095,-4.675062547,-0,12.32427288,-0,11.81520769
195,0.023875,0.000375,0.000125,11.23554908,-4.505671289,-0,12.45377558,-0,11.79120516
196,0.024125,0.000375,0.000125,11.02477531,-4.162889195,-0,12.58416256,-0,11.72492514
197,0.024375,0.000375,0.000125,10.75873751,-3.585690753,-0,12.70753526,-0,11.57527549
198,0.024625,0.000375,0.000125,10.49504591,-2.676894552,-0,12.7069258,-0,11.35305019
199,0.024875,0.000375,0.000125,10.2016684,-1.167084743,-0,12.83524862,-0,10.82762104
200,0.000125,0.000625,0.000125,3.870939525,-0.2672001867,-0,4.160171214,-0,3.964577309
201,0.000375,0.000625,0.000125,3.752217863,-0.08185349183,-0,4.279079066,-0,3.962259843
202,0.000625,0.000625,0.000125,3.74076364,0.01095744281,-0,4.279515226,-0,3.973747427
203,0.000875,0.000625,0.000125,3.769250801,0.02044087283,-0,4.250376025,-0,3.977530932
204,0.001125,0.000625,0.000125,3.798167737,0.01491723502,-0,4.223691777,-0,3.98111288
205,0.001375,0.000625,0.000125,3.822586479,0.004492309579,-0,4.201377387,-0,3.987491557
206,0.001625,0.000625,0.000125,3.846079499,-0.01196523214,-0,4.182072273,-0,3.994415465
207,0.001875,0.000625,0.000125,3.868215104,-0.03371395514,-0,4.167022817,-0,4.001022201
208,0.002125,0.000625,0.000125,3.888392193,-0.05864298256,-0,4.155483796,-0,4.008604135
209,0.002375,0.000625,0.000125,3.907219046,-0.08522712521,-0,4.147164327,-0,4.016788097
210,0.002625,0.000625,0.000125,3.924655542,-0.1123106194,-0,4.141681071,-0,4.025938425
211,0.002875,0.000625,0.000125,3.94780507,-0.1247557513,-0,4.136025749,-0,4.031884659
212,0.003125,0.000625,0.000125,3.980220171,-0.1097115132,-0,4.127522406,-0,4.033656835
213,0.003375,0.000625,0.000125,4.004592761,-0.1000415416,-0,4.123999297,-0,4.040670613
214,0.003625,0.000625,0.000125,4.02415834,-0.09241518859,-0,4.124562543,-0,4.050518192
215,0.003875,0.000625,0.000125,4.042003681,-0.08528578482,-0,4.127412199,-0,4.061840466
216,0.004125,0.000625,0.000125,4.059024711,-0.07877106488,-0,4.131989862,-0,4.074223973
217,0.004375,0.000625,0.000125,4.075587989,-0.07290373672,-0,4.138075182,-0,4.087444121
218,0.004625,0.000625,0.000125,4.091967245,-0.06774878696,-0,4.145459688,-0,4.101354906
219,0.004875,0.000625,0.000125,4.108036357,-0.06680432478,-0,4.154131561,-0,4.116015325
220,0.005125,0.000625,0.000125,4.122481967,-0.0884027588,-0,4.164610168,-0,4.132152015
221,0.005375,0.000625,0.000125,4.137687532,-0.109366108,-0,4.175677798,-0,4.148516707
222,0.005625,0.000625,0.000125,4.153461238,-0.130267905,-0,4.187557294,-0,4.164996642
223,0.005875,0.000625,0.000125,4.169709296,-0.1509577566,-0,4.200212598,-0,4.181639584
224,0.006125,0.000625,0.000125,4.186417775,-0.1716848109,-0,4.213491067,-0,4.19852973
225,0.006375,0.000625,0.000125,4.203592516,-0.1921058853,-0,4.227291546,-0,4.215678984
226,0.006625,0.000625,0.000125,4.221191533,-0.2128473802,-0,4.241561307,-0,4.233100422
227,0.006875,0.000625,0.000125,4.239174367,-0.2334101878,-0,4.256314661,-0,4.250738288
228,0.007125,0.000625,0.000125,4.257405861,-0.2549375183,-0,4.271630706,-0,4.268571208
229,0.007375,0.000625,0.000125,4.275839419,-0.2778557932,-0,4.287429042,-0,4.286651339
230,0.007625,0.000625,0.000125,4.294564833,-0.2996687025,-0,4.303523344,-0,4.304992688
231,0.007875,0.000625,0.000125,4.313564178,-0.3208661495,-0,4.319901174,-0,4.323546196
232,0.008125,0.000625,0.000125,4.332803348,-0.3417457667,-0,4.336573446,-0,4.342259686
233,0.008375,0.000625,0.000125,4.352238409,-0.3625048663,-0,4.353526829,-0,4.36111779
234,0.008625,0.000625,0.000125,4.371194991,-0.3825385328,-0,4.372004117,-0,4.379480954
235,0.008875,0.000625,0.000125,4.389714921,-0.4026064695,-0,4.391840019,-0,4.397406808
236,0.009125,0.000625,0.000125,4.408733138,-0.422196913,-0,4.411146347,-0,4.415780383
237,0.009375,0.000625,0.000125,4.428037429,-0.4420178789,-0,4.430290729,-0,4.434387514
238,0.009625,0.000625,0.000125,4.447435071,-0.4623570593,-0,4.449575181,-0,4.453066047
239,0.009875,0.000625,0.000125,4.466890963,-0.4830924332,-0,4.468981143,-0,4.471818797
240,0.010125,0.000625,0.000125,4.486404118,-0.5041764264,-0,4.488449911,-0,4.490657417
241,0.010375,0.000625,0.000125,4.505975638,-0.5255661317,-0,4.507942917,-0,4.509574611
242,0.010625,0.000625,0.000125,4.525593308,-0.5472250516,-0,4.527452206,-0,4.528549217
243,0.010875,0.000625,0.000125,4.545242525,-0.5691423995,-0,4.546970005,-0,4.54756584
244,0.011125,0.000625,0.000125,4.564916414,-0.5912953564,-0,4.566484864,-0,4.56660844
245,0.011375,0.000625,0.000125,4.584683936,-0.6137036307,-0,4.585787245,-0,4.585787245
246,0.011625,0.000625,0.000125,4.604614797,-0.6361984662,-0,4.604791138,-0,4.605089483
247,0.011875,0.000625,0.000125,4.624559139,-0.6591169479,-0,4.623729385,-0,4.624410602
248,0.012125,0.000625,0.000125,4.644440364,-0.6821099246,-0,4.642673722,-0,4.643734276
249,0.012375,0.000625,0.000125,4.664316011,-0.7052513233,-0,4.661579834,-0,4.663029419
250,0.012625,0.000625,0.000125,4.684177501,-0.7285076215,-0,4.680414667,-0,4.682322436
251,0.012875,0.000625,0.000125,4.703999759,-0.7519842538,-0,4.699204855,-0,4.701600369
252,0.013125,0.000625,0.000125,4.723744466,-0.7757389013,-0,4.718014001,-0,4.720830035
253,0.013375,0.000625,0.000125,4.743412852,-0.7997312312,-0,4.73683722,-0,4.74001008
254,0.013625,0.000625,0.000125,4.76302433,-0.8239208912,-0,4.755637089,-0,4.759156003
255,0.013875,0.000625,0.000125,4.782580599,-0.8483023417,-0,4.774408143,-0,4.778271757
256,0.014125,0.000625,0.000125,4.802061689,-0.8729088355,-0,4.793190026,-0,4.797340787
257,0.014375,0.000625,0.000125,4.821480206,-0.8976464436,-0,4.811965339,-0,4.81637243
258,0.014625,0.000625,0.000125,4.840875061,-0.9224360938,-0,4.830663362,-0,4.835404046
259,0.014875,0.000625,0.000125,4.860252725,-0.9472792163,-0,4.849268855,-0,4.854451128
260,0.015125,0.000625,0.000125,4.879596519,-0.9722123618,-0,4.867811493,-0,4.873508972
261,0.015375,0.000625,0.000125,4.898896903,-0.9972555744,-0,4.886311916,-0,4.892576147
262,0.015625,0.000625,0.000125,4.918154346,-1.022410183,-0,4.904772382,-0,4.911660412
263,0.015875,0.000625,0.000125,4.937371115,-1.047667429,-0,4.923189637,-0,4.930773461
264,0.016125,0.000625,0.000125,4.956548024,-1.073012745,-0,4.941561159,-0,4.949927395
265,0.016375,0.000625,0.000125,4.975684682,-1.09842724,-0,4.959884412,-0,4.96913459
266,0.016625,0.000625,0.000125,4.994779144,-1.123883741,-0,4.978155973,-0,4.988408177
267,0.016875,0.000625,0.000125,5.01382945,-1.149345733,-0,4.996370036,-0,5.00776109
268,0.017125,0.000625,0.000125,5.032828369,-1.174763542,-0,5.014521635,-0,5.02720703
269,0.017375,0.000625,0.000125,5.051752239,-1.200063619,-0,5.032623171,-0,5.046753362
270,0.017625,0.000625,0.000125,5.070581965,-1.225159394,-0,5.050669604,-0,5.066414374
271,0.017875,0.000625,0.000125,5.089256585,-1.249896752,-0,5.06873099,-0,5.086164031
272,0.018125,0.000625,0.000125,5.107131411,-1.274447013,-0,5.088041099,-0,5.105391665
273,0.018375,0.000625,0.000125,5.123847263,-1.299354111,-0,5.109253115,-0,5.123778388
274,0.018625,0.000625,0.000125,5.140090044,-1.324073723,-0,5.130893401,-0,5.14206869
275,0.018875,0.000625,0.000125,5.155761744,-1.348390613,-0,5.153025617,-0,5.160234377
276,0.019125,0.000625,0.000125,5.170745799,-1.372183953,-0,5.175721409,-0,5.178237265
277,0.019375,0.000625,0.000125,5.184897986,-1.395322148,-0,5.199065894,-0,5.19602867
278,0.019625,0.000625,0.000125,5.19803873,-1.417642846,-0,5.223165449,-0,5.213543611
279,0.019875,0.000625,0.000125,5.209947838,-1.439014481,-0,5.248154058,-0,5.230695162
280,0.020125,0.000625,0.000125,5.220321206,-1.459358957,-0,5.274265742,-0,5.247339958
281,0.020375,0.000625,0.000125,5.22886678,-1.478552241,-0,5.301636852,-0,5.263370746
282,0.020625,0.000625,0.000125,5.235283624,-1.495854125,-0,5.330333337,-0,5.278680658
283,0.020875,0.000625,0.000125,5.239210702,-1.510608115,-0,5.360414595,-0,5.293136165
284,0.021125,0.000625,0.000125,5.240156084,-1.521621197,-0,5.392024296,-0,5.306518578
285,0.021375,0.000625,0.000125,5.23731686,-1.528554417,-0,5.425601498,-0,5.318495942
286,0.021625,0.000625,0.000125,5.22949581,-1.530593634,-0,5.461207394,-0,5.32836778
287,0.021875,0.000625,0.000125,5.216509625,-1.525415431,-0,5.499858437,-0,5.336388338
288,0.022125,0.000625,0.000125,5.198098112,-1.510322304,-0,5.543205628,-0,5.343055834
289,0.022375,0.000625,0.000125,5.173497668,-1.478247441,-0,5.591536585,-0,5.347901863
290,0.022625,0.000625,0.000125,5.142642944,-1.412467203,-0,5.645458605,-0,5.348841219
291,0.022875,0.000625,0.000125,5.103618809,-1.32714314,-0,5.70636719,-0,5.345368787
292,0.023125,0.000625,0.000125,5.059524621,-1.182704285,-0,5.773069452,-0,5.333378057
293,0.023375,0.000625,0.000125,5.007921755,-1.011649647,-0,5.84751444,-0,5.312382916
294,0.023625,0.000625,0.000125,4.952259894,-0.7712946602,-0,5.927014786,-0,5.279726889
295,0.023875,0.000625,0.000125,4.922072109,-0.4138700724,-0,5.991921074,-0,5.223777671
296,0.024125,0.000625,0.000125,4.818718796,-0.3018741621,-0,6.085873543,-0,5.201976457
297,0.024375,0.000625,0.000125,4.775102896,0.03927251233,-0,6.122331361,-0,5.163896087
298,0.024625,0.000625,0.000125,4.728690255,0.3397443754,-0,6.073782114,-0,5.196873038
299,0.024875,0.000625,0.000125,5.133140799,1.522223282,-0,5.671986831,-0,5.133140799
300,0.000125,0.000875,0.000125,3.938576645,-0.2094631497,-0,4.072960223,-0,3.982325992
301,0.000375,0.000875,0.000125,3.849147883,-0.1445926103,-0,4.143296042,-0,3.995161126
302,0.000625,0.000875,0.000125,3.811919372,-0.07701364001,-0,4.162566907,-0,4.007108911
303,0.000875,0.000875,0.000125,3.805275271,-0.02813608426,-0,4.165012579,-0,4.005618248
304,0.001125,0.000875,0.000125,3.805958353,0.00498514289,-0,4.163638694,-0,4.001001597
305,0.001375,0.000875,0.000125,3.805616967,0.0291913825,-0,4.161728569,-0,3.998375448
306,0.001625,0.000875,0.000125,3.806523181,0.04591819788,-0,4.158142734,-0,3.996641685
307,0.001875,0.000875,0.000125,3.809250987,0.05619999182,-0,4.153521414,-0,3.99461094
308,0.002125,0.000875,0.000125,3.812762533,0.06130741636,-0,4.148639087,-0,3.99256457
309,0.002375,0.000875,0.000125,3.815728137,0.06326841197,-0,4.14481056,-0,3.990530678
310,0.002625,0.000875,0.000125,3.818937319,0.062321395,-0,4.141147784,-0,3.988615449
311,0.002875,0.000875,0.000125,3.822740601,0.06012988967,-0,4.137113026,-0,3.987009246
312,0.003125,0.000875,0.000125,3.826155986,0.05740625638,-0,4.13351239,-0,3.985887827
313,0.003375,0.000875,0.000125,3.828846156,0.05117639755,-0,4.130753552,-0,3.985177844
314,0.003625,0.000875,0.000125,3.831334907,0.0437080284,-0,4.128550395,-0,3.984636642
315,0.003875,0.000875,0.000125,3.834142065,0.03547930943,-0,4.126618566,-0,3.984021603
316,0.004125,0.000875,0.000125,3.837196991,0.02630202351,-0,4.124946244,-0,3.983406377
317,0.004375,0.000875,0.000125,3.840363357,0.01621996988,-0,4.123529294,-0,3.982921295
318,0.004625,0.000875,0.000125,3.843625721,0.005364948942,-0,4.122292455,-0,3.98264576
319,0.004875,0.000875,0.000125,3.846660946,-0.00611404893,-0,4.121652489,-0,3.982474371
320,0.005125,0.000875,0.000125,3.849563475,-0.01840007846,-0,4.121527551,-0,3.982382257
321,0.005375,0.000875,0.000125,3.852719785,-0.03091935337,-0,4.121373704,-0,3.98251334
322,0.005625,0.000875,0.000125,3.856221706,-0.04389743689,-0,4.121100266,-0,3.982852483
323,0.005875,0.000875,0.000125,3.859802058,-0.05722940161,-0,4.120870368,-0,3.983489531
324,0.006125,0.000875,0.000125,3.863550586,-0.07077913364,-0,4.120663793,-0,3.984340359
325,0.006375,0.000875,0.000125,3.867287946,-0.08449570576,-0,4.120616485,-0,3.985433577
326,0.006625,0.000875,0.000125,3.87121872,-0.0983613903,-0,4.120640916,-0,3.986637117
327,0.006875,0.000875,0.000125,3.874914744,-0.1122457988,-0,4.121006673,-0,3.988094455
328,0.007125,0.000875,0.000125,3.881586234,-0.119522539,-0,4.120266099,-0,3.988021612
329,0.007375,0.000875,0.000125,3.895279266,-0.1144159609,-0,4.116178373,-0,3.984585451
330,0.007625,0.000875,0.000125,3.907382177,-0.1103876225,-0,4.112696326,-0,3.982430294
331,0.007875,0.000875,0.000125,3.917468114,-0.1068283224,-0,4.110104362,-0,3.981683903
332,0.008125,0.000875,0.000125,3.926278722,-0.1034042792,-0,4.108200095,-0,3.981791831
333,0.008375,0.000875,0.000125,3.934414862,-0.0996301214,-0,4.106692727,-0,3.982428233
334,0.008625,0.000875,0.000125,3.941248781,-0.09724320115,-0,4.106070025,-0,3.983718856
335,0.008875,0.000875,0.000125,3.948415117,-0.09283740733,-0,4.105350482,-0,3.984993979
336,0.009125,0.000875,0.000125,3.951669349,-0.1034636207,-0,4.106425989,-0,3.988601672
337,0.009375,0.000875,0.000125,3.953407215,-0.1203292957,-0,4.108397465,-0,3.993036553
338,0.009625,0.000875,0.000125,3.95551664,-0.1366747343,-0,4.110420543,-0,3.997241782
339,0.009875,0.000875,0.000125,3.958032063,-0.1526843838,-0,4.112406306,-0,4.001258791
340,0.010125,0.000875,0.000125,3.960869802,-0.1684521862,-0,4.114336442,-0,4.005177003
341,0.010375,0.000875,0.000125,3.96398976,-0.1839914115,-0,4.116207672,-0,4.009027694
342,0.010625,0.000875,0.000125,3.967861248,-0.1993932668,-0,4.116990005,-0,4.013359613
343,0.010875,0.000875,0.000125,3.97204946,-0.2146045178,-0,4.117505317,-0,4.017774601
344,0.011125,0.000875,0.000125,3.976346799,-0.2297629428,-0,4.11809976,-0,4.022123915
345,0.011375,0.000875,0.000125,3.980740311,-0.2447611408,-0,4.118776662,-0,4.026407337
346,0.011625,0.000875,0.000125,3.985158898,-0.2598405303,-0,4.119587503,-0,4.030635731
347,0.011875,0.000875,0.000125,3.989616341,-0.2747090614,-0,4.120556291,-0,4.034762585