cellI,x,y,z,omega,k,nut
0,0.000125,0.000125,0.000125,99678.53782,7.829108496,7.854357284e-05
1,0.000375,0.000125,0.000125,112324.0388,9.941557212,8.850783248e-05
2,0.000625,0.000125,0.000125,124093.0269,12.13399329,9.77814273e-05
3,0.000875,0.000125,0.000125,135095.737,14.38110589,0.000106451219
4,0.001125,0.000125,0.000125,145408.1257,16.6604354,0.000114577059
5,0.001375,0.000125,0.000125,155086.417,18.95206421,0.0001222032501
6,0.001625,0.000125,0.000125,164174.549,21.23834436,0.0001293644142
7,0.001875,0.000125,0.000125,172708.7707,23.50378362,0.0001360891142
8,0.002125,0.000125,0.000125,180720.3967,25.73495047,0.0001424020251
9,0.002375,0.000125,0.000125,188237.4107,27.92035108,0.0001483251972
10,0.002625,0.000125,0.000125,195285.4439,30.05029506,0.0001538788271
11,0.002875,0.000125,0.000125,201888.3947,32.11675832,0.000159081746
12,0.003125,0.000125,0.000125,208068.8339,34.11324714,0.000163951739
13,0.003375,0.000125,0.000125,213848.271,36.03466431,0.0001685057548
14,0.003625,0.000125,0.000125,219247.317,37.87717402,0.0001727600343
15,0.003875,0.000125,0.000125,224285.7845,39.63806915,0.0001767301893
16,0.004125,0.000125,0.000125,228982.75,41.3156441,0.0001804312513
17,0.004375,0.000125,0.000125,233356.5929,42.90907422,0.0001838777028
18,0.004625,0.000125,0.000125,237425.0154,44.41830112,0.0001870834926
19,0.004875,0.000125,0.000125,241205.0503,45.84392441,0.000190062042
20,0.005125,0.000125,0.000125,244713.0648,47.18710209,0.0001928262478
21,0.005375,0.000125,0.000125,247964.7656,48.44946021,0.0001953884864
22,0.005625,0.000125,0.000125,250975.1996,49.63300966,0.0001977606143
23,0.005875,0.000125,0.000125,253758.7549,50.74007019,0.0001999539689
24,0.006125,0.000125,0.000125,256329.1647,51.77320358,0.0002019793715
25,0.006375,0.000125,0.000125,258699.5172,52.73515546,0.0002038471352
26,0.006625,0.000125,0.000125,260882.2663,53.62880395,0.0002055670733
27,0.006875,0.000125,0.000125,262889.2429,54.45711449,0.0002071485082
28,0.007125,0.000125,0.000125,264731.6685,55.22310068,0.0002086002819
29,0.007375,0.000125,0.000125,266420.1702,55.92979108,0.0002099307685
30,0.007625,0.000125,0.000125,267964.7998,56.58020164,0.0002111478884
31,0.007875,0.000125,0.000125,269375.0531,57.17731276,0.0002122591239
32,0.008125,0.000125,0.000125,270659.889,57.72404982,0.0002132715344
33,0.008375,0.000125,0.000125,271827.7488,58.22326702,0.0002141917714
34,0.008625,0.000125,0.000125,272886.576,58.6777346,0.0002150260942
35,0.008875,0.000125,0.000125,273843.838,59.09012928,0.0002157803868
36,0.009125,0.000125,0.000125,274706.5484,59.4630277,0.0002164601756
37,0.009375,0.000125,0.000125,275481.2889,59.7989016,0.0002170706469
38,0.009625,0.000125,0.000125,276174.2297,60.10011415,0.0002176166626
39,0.009875,0.000125,0.000125,276791.1494,60.36891806,0.000218102776
40,0.010125,0.000125,0.000125,277337.4568,60.60745553,0.0002185332491
41,0.010375,0.000125,0.000125,277818.2112,60.81775933,0.0002189120686
42,0.010625,0.000125,0.000125,278238.1428,61.00175443,0.0002192429616
43,0.010875,0.000125,0.000125,278601.6702,61.16126022,0.0002195294098
44,0.011125,0.000125,0.000125,278912.9194,61.2979933,0.0002197746645
45,0.011375,0.000125,0.000125,279175.7409,61.41357071,0.0002199817596
46,0.011625,0.000125,0.000125,279393.7259,61.5095136,0.0002201535249
47,0.011875,0.000125,0.000125,279570.2228,61.58725099,0.000220292599
48,0.012125,0.000125,0.000125,279708.3522,61.64812377,0.0002204014406
49,0.012375,0.000125,0.000125,279811.0207,61.69338867,0.0002204823402
50,0.012625,0.000125,0.000125,279880.9355,61.72422246,0.0002205374309
51,0.012875,0.000125,0.000125,279920.617,61.74172623,0.0002205686987
52,0.013125,0.000125,0.000125,279932.4122,61.74692964,0.0002205779929
53,0.013375,0.000125,0.000125,279918.5056,61.74079481,0.000220567035
54,0.013625,0.000125,0.000125,279880.9302,61.72422011,0.0002205374267
55,0.013875,0.000125,0.000125,279821.5774,61.69804388,0.0002204906586
56,0.014125,0.000125,0.000125,279742.207,61.663048,0.0002204281172
57,0.014375,0.000125,0.000125,279644.456,61.61996138,0.0002203510924
58,0.014625,0.000125,0.000125,279529.847,61.56946328,0.0002202607841
59,0.014875,0.000125,0.000125,279399.7966,61.51218662,0.0002201583085
60,0.015125,0.000125,0.000125,279255.6236,61.44872124,0.0002200447047
61,0.015375,0.000125,0.000125,279098.5566,61.37961712,0.0002199209407
62,0.015625,0.000125,0.000125,278929.7407,61.30538728,0.0002197879191
63,0.015875,0.000125,0.000125,278750.2448,61.2265106,0.0002196464819
64,0.016125,0.000125,0.000125,278561.0673,61.14343449,0.000219497416
65,0.016375,0.000125,0.000125,278363.1429,61.05657756,0.0002193414578
66,0.016625,0.000125,0.000125,278157.3478,60.96633211,0.0002191792976
67,0.016875,0.000125,0.000125,277944.5057,60.87306668,0.0002190115848
68,0.017125,0.000125,0.000125,277725.3938,60.7771284,0.0002188389314
69,0.017375,0.000125,0.000125,277500.7475,60.67884547,0.0002186619172
70,0.017625,0.000125,0.000125,277271.2665,60.57852944,0.0002184810933
71,0.017875,0.000125,0.000125,277037.6197,60.47647766,0.000218296987
72,0.018125,0.000125,0.000125,276800.451,60.37297557,0.0002181101055
73,0.018375,0.000125,0.000125,276560.3852,60.26829939,0.000217920941
74,0.018625,0.000125,0.000125,276318.0363,60.16271988,0.0002177299777
75,0.018875,0.000125,0.000125,276074.0159,60.05650572,0.0002175376973
76,0.019125,0.000125,0.000125,275828.9391,59.94992615,0.0002173445845
77,0.019375,0.000125,0.000125,275583.4315,59.84325416,0.0002171511322
78,0.019625,0.000125,0.000125,275338.1398,59.73677084,0.00021695785
79,0.019875,0.000125,0.000125,275093.7434,59.63077045,0.0002167652733
80,0.020125,0.000125,0.000125,274850.9675,59.52556613,0.0002165739734
81,0.020375,0.000125,0.000125,274610.5991,59.42149659,0.0002163845707
82,0.020625,0.000125,0.000125,274373.5055,59.31893412,0.0002161977484
83,0.020875,0.000125,0.000125,274140.6564,59.21829394,0.0002160142706
84,0.021125,0.000125,0.000125,273913.1548,59.12004755,0.0002158350065
85,0.021375,0.000125,0.000125,273692.2789,59.02474051,0.0002156609633
86,0.021625,0.000125,0.000125,273479.5256,58.93301105,0.0002154933204
87,0.021875,0.000125,0.000125,273276.6696,58.84561526,0.0002153334763
88,0.022125,0.000125,0.000125,273085.7352,58.76341489,0.0002151830261
89,0.022375,0.000125,0.000125,272900.3571,58.68366115,0.0002150369526
90,0.022625,0.000125,0.000125,272709.2077,58.60148129,0.0002148863318
91,0.022875,0.000125,0.000125,272511.0627,58.51635459,0.0002147301985
92,0.023125,0.000125,0.000125,272306.4119,58.42849788,0.000214568939
93,0.023375,0.000125,0.000125,272093.1522,58.33701553,0.0002144008956
94,0.023625,0.000125,0.000125,271866.8325,58.24000912,0.000214222561
95,0.023875,0.000125,0.000125,271618.6756,58.13373537,0.0002140270187
96,0.024125,0.000125,0.000125,271329.8703,58.01017587,0.0002137994457
97,0.024375,0.000125,0.000125,270969.5278,57.8561946,0.0002135155014
98,0.024625,0.000125,0.000125,270427.8704,57.62511844,0.0002130886818
99,0.024875,0.000125,0.000125,269669.549,57.302386,0.0002124911256
100,0.000125,0.000375,0.000125,3889.908556,6.023144976,0.001548402717
101,0.000375,0.000375,0.000125,5202.545391,6.065247834,0.001165823146
102,0.000625,0.000375,0.000125,6407.16303,6.120772776,0.0009553015504
103,0.000875,0.000375,0.000125,7551.32959,6.188021251,0.0008194611528
104,0.001125,0.000375,0.000125,8660.871015,6.266001437,0.0007234839805
105,0.001375,0.000375,0.000125,9750.390654,6.354003746,0.0006516665816
106,0.001625,0.000375,0.000125,10828.81002,6.451461104,0.0005957682419
107,0.001875,0.000375,0.000125,11902.10523,6.557917144,0.000550987999
108,0.002125,0.000375,0.000125,12974.07303,6.67293267,0.0005143282802
109,0.002375,0.000375,0.000125,14047.15662,6.796079392,0.0004838046286
110,0.002625,0.000375,0.000125,15122.713,6.926908562,0.0004580466851
111,0.002875,0.000375,0.000125,16201.48167,7.064970125,0.0004360693835
112,0.003125,0.000375,0.000125,17283.59823,7.209788148,0.0004171462476
113,0.003375,0.000375,0.000125,18368.69272,7.360848063,0.000400727922
114,0.003625,0.000375,0.000125,19456.29716,7.517648102,0.0003863863734
115,0.003875,0.000375,0.000125,20545.63118,7.679664162,0.0003737857501
116,0.004125,0.000375,0.000125,21635.72494,7.846360519,0.0003626576202
117,0.004375,0.000375,0.000125,22725.50597,8.017199362,0.0003527841964
118,0.004625,0.000375,0.000125,23813.83273,8.191644538,0.0003439868176
119,0.004875,0.000375,0.000125,24899.54994,8.369169926,0.0003361173173
120,0.005125,0.000375,0.000125,25981.44959,8.549252904,0.0003290521906
121,0.005375,0.000375,0.000125,27058.30429,8.731382669,0.0003226877256
122,0.005625,0.000375,0.000125,28128.98508,8.915075919,0.00031693557
123,0.005875,0.000375,0.000125,29192.39106,9.099866604,0.0003117204954
124,0.006125,0.000375,0.000125,30247.44188,9.285306642,0.0003069782455
125,0.006375,0.000375,0.000125,31293.09738,9.470970048,0.000302653647
126,0.006625,0.000375,0.000125,32328.38461,9.656457405,0.0002986990387
127,0.006875,0.000375,0.000125,33352.39996,9.841396244,0.0002950731059
128,0.007125,0.000375,0.000125,34364.31373,10.02544197,0.0002917399151
129,0.007375,0.000375,0.000125,35363.36157,10.20827694,0.000288668172
130,0.007625,0.000375,0.000125,36348.83481,10.38960905,0.0002858305942
131,0.007875,0.000375,0.000125,37320.10289,10.5691755,0.0002832032787
132,0.008125,0.000375,0.000125,38276.62769,10.74674469,0.0002807651913
133,0.008375,0.000375,0.000125,39217.95046,10.92211331,0.0002784978098
134,0.008625,0.000375,0.000125,40143.69442,11.09510696,0.0002763848001
135,0.008875,0.000375,0.000125,41053.54207,11.26557578,0.0002744117855
136,0.009125,0.000375,0.000125,41947.22663,11.43339163,0.000272566092
137,0.009375,0.000375,0.000125,42824.56287,11.59845304,0.0002708364607
138,0.009625,0.000375,0.000125,43685.43366,11.76068199,0.0002692128934
139,0.009875,0.000375,0.000125,44529.76902,11.92001977,0.0002676865394
140,0.010125,0.000375,0.000125,45357.54473,12.07642646,0.000266249563
141,0.010375,0.000375,0.000125,46168.78576,12.22988103,0.0002648950114
142,0.010625,0.000375,0.000125,46963.56493,12.38038028,0.0002636167058
143,0.010875,0.000375,0.000125,47741.99886,12.52793738,0.0002624091509
144,0.011125,0.000375,0.000125,48504.24368,12.67258054,0.0002612674599
145,0.011375,0.000375,0.000125,49250.49266,12.81435151,0.0002601872756
146,0.011625,0.000375,0.000125,49980.97583,12.9533069,0.0002591647458
147,0.011875,0.000375,0.000125,50695.94025,13.08950839,0.0002581963828
148,0.012125,0.000375,0.000125,51395.67747,13.22303518,0.0002572791299
149,0.012375,0.000375,0.000125,52080.49635,13.35397301,0.0002564102485
150,0.012625,0.000375,0.000125,52750.72094,13.4824144,0.0002555873012
151,0.012875,0.000375,0.000125,53406.69037,13.60845839,0.0002548081204
152,0.013125,0.000375,0.000125,54048.75864,13.73221018,0.0002540707784
153,0.013375,0.000375,0.000125,54677.29542,13.85378093,0.0002533735588
154,0.013625,0.000375,0.000125,55292.68333,13.97328677,0.0002527149331
155,0.013875,0.000375,0.000125,55895.31425,14.0908477,0.0002520935412
156,0.014125,0.000375,0.000125,56485.58742,14.20658705,0.0002515081757
157,0.014375,0.000375,0.000125,57063.90892,14.32063102,0.0002509577645
158,0.014625,0.000375,0.000125,57630.68708,14.43310737,0.0002504413551
159,0.014875,0.000375,0.000125,58186.32553,14.54414379,0.000249958107
160,0.015125,0.000375,0.000125,58731.22109,14.65386734,0.000249507282
161,0.015375,0.000375,0.000125,59265.76382,14.7624043,0.0002490882316
162,0.015625,0.000375,0.000125,59790.33545,14.86987956,0.000248700387
163,0.015875,0.000375,0.000125,60305.30654,14.97641589,0.0002483432512
164,0.016125,0.000375,0.000125,60811.03382,15.08213325,0.0002480163927
165,0.016375,0.000375,0.000125,61307.85764,15.18714812,0.0002477194394
166,0.016625,0.000375,0.000125,61796.09898,15.29157279,0.0002474520729
167,0.016875,0.000375,0.000125,62276.05623,15.39551442,0.0002472140234
168,0.017125,0.000375,0.000125,62748.00157,15.49907427,0.0002470050661
169,0.017375,0.000375,0.000125,63212.17684,15.60234642,0.0002468250138
170,0.017625,0.000375,0.000125,63668.79007,15.70541713,0.0002466737174
171,0.017875,0.000375,0.000125,64118.01348,15.80836469,0.0002465510678
172,0.018125,0.000375,0.000125,64559.9808,15.91125928,0.0002464570015
173,0.018375,0.000375,0.000125,64994.76414,16.01415888,0.0002463915224
174,0.018625,0.000375,0.000125,65422.33656,16.11709905,0.0002463546839
175,0.018875,0.000375,0.000125,65842.61447,16.22009981,0.0002463465332
176,0.019125,0.000375,0.000125,66255.43075,16.32316105,0.000246367141
177,0.019375,0.000375,0.000125,66660.50863,16.42625751,0.0002464166243
178,0.019625,0.000375,0.000125,67057.44164,16.5293342,0.000246495151
179,0.019875,0.000375,0.000125,67445.66944,16.6323006,0.0002466029434
180,0.020125,0.000375,0.000125,67824.44688,16.73502346,0.0002467402866
181,0.020375,0.000375,0.000125,68192.80297,16.8373166,0.0002469075308
182,0.020625,0.000375,0.000125,68549.49311,16.93892988,0.0002471051077
183,0.020875,0.000375,0.000125,68892.93579,17.0395313,0.0002473335054
184,0.021125,0.000375,0.000125,69221.06675,17.13867956,0.0002475934042
185,0.021375,0.000375,0.000125,69531.0773,17.23575839,0.0002478856802
186,0.021625,0.000375,0.000125,69819.83293,17.33006564,0.0002482112161
187,0.021875,0.000375,0.000125,70082.92022,17.42061867,0.0002485715295
188,0.022125,0.000375,0.000125,70306.76142,17.50464568,0.000248975281
189,0.022375,0.000375,0.000125,70492.90165,17.58230527,0.000249419514
190,0.022625,0.000375,0.000125,70658.29725,17.65665218,0.0002498878811
191,0.022875,0.000375,0.000125,70795.89196,17.72573452,0.0002503780096
192,0.023125,0.000375,0.000125,70896.42215,17.7868967,0.0002508856746
193,0.023375,0.000375,0.000125,70946.78031,17.83633403,0.0002514044182
194,0.023625,0.000375,0.000125,70927.63031,17.86823415,0.0002519220517
195,0.023875,0.000375,0.000125,70810.25135,17.87385249,0.0002524189952
196,0.024125,0.000375,0.000125,70552.92998,17.84089357,0.0002528724686
197,0.024375,0.000375,0.000125,70090.23151,17.74877099,0.0002532274557
198,0.024625,0.000375,0.000125,69337.65599,17.57401118,0.0002534555132
199,0.024875,0.000375,0.000125,68220.40376,17.29781791,0.0002535578355
200,0.000125,0.000625,0.000125,2500.757893,5.997844024,0.002398410515
201,0.000375,0.000625,0.000125,2586.790067,5.996778386,0.002318231566
202,0.000625,0.000625,0.000125,2695.909345,5.997013147,0.002224486205
203,0.000875,0.000625,0.000125,2822.360113,5.998578879,0.002125376862
204,0.001125,0.000625,0.000125,2962.316452,6.001486197,0.002025943647
205,0.001375,0.000625,0.000125,3113.078182,6.005727712,0.001929192702
206,0.001625,0.000625,0.000125,3272.684668,6.011283619,0.001836805018
207,0.001875,0.000625,0.000125,3439.703199,6.018130061,0.001749607368
208,0.002125,0.000625,0.000125,3613.058843,6.026240063,0.00166790532
209,0.002375,0.000625,0.000125,3791.947338,6.035585738,0.00159168501
210,0.002625,0.000625,0.000125,3975.747627,6.046137523,0.001520754859
211,0.002875,0.000625,0.000125,4163.977237,6.057857744,0.001454824894
212,0.003125,0.000625,0.000125,4356.234212,6.070699712,0.00139356596
213,0.003375,0.000625,0.000125,4552.191138,6.084631345,0.001336637931
214,0.003625,0.000625,0.000125,4751.600898,6.099619551,0.001283697786
215,0.003875,0.000625,0.000125,4954.244876,6.115628191,0.001234421863
216,0.004125,0.000625,0.000125,5159.925213,6.132619297,0.001188509337
217,0.004375,0.000625,0.000125,5368.462545,6.150553677,0.001145682516
218,0.004625,0.000625,0.000125,5579.689789,6.169390961,0.001105687089
219,0.004875,0.000625,0.000125,5793.456329,6.189091676,0.001068290037
220,0.005125,0.000625,0.000125,6009.621908,6.209622146,0.001033280003
221,0.005375,0.000625,0.000125,6228.039508,6.23094111,0.001000465893
222,0.005625,0.000625,0.000125,6448.570387,6.253007703,0.0009696734823
223,0.005875,0.000625,0.000125,6671.079443,6.275780885,0.0009407444385
224,0.006125,0.000625,0.000125,6895.431682,6.299219471,0.0009135351869
225,0.006375,0.000625,0.000125,7121.491138,6.323281753,0.0008879154141
226,0.006625,0.000625,0.000125,7349.123826,6.347926918,0.0008637664936
227,0.006875,0.000625,0.000125,7578.196483,6.373114013,0.000840980308
228,0.007125,0.000625,0.000125,7808.579304,6.398804329,0.0008194581985
229,0.007375,0.000625,0.000125,8040.142268,6.424960443,0.0007991102929
230,0.007625,0.000625,0.000125,8272.748734,6.451541095,0.0007798545928
231,0.007875,0.000625,0.000125,8506.265154,6.478506582,0.0007616158754
232,0.008125,0.000625,0.000125,8740.564532,6.505819219,0.0007443248311
233,0.008375,0.000625,0.000125,8975.52184,6.533442698,0.0007279178653
234,0.008625,0.000625,0.000125,9211.020926,6.561341458,0.0007123359626
235,0.008875,0.000625,0.000125,9446.946902,6.589482593,0.0006975251012
236,0.009125,0.000625,0.000125,9683.178336,6.617831989,0.0006834359298
237,0.009375,0.000625,0.000125,9919.60705,6.646360302,0.0006700225391
238,0.009625,0.000625,0.000125,10156.13158,6.675041111,0.0006572424805
239,0.009875,0.000625,0.000125,10392.65153,6.703849008,0.0006450566528
240,0.010125,0.000625,0.000125,10629.06896,6.732759992,0.0006334289501
241,0.010375,0.000625,0.000125,10865.28998,6.761751701,0.0006223259308
242,0.010625,0.000625,0.000125,11101.22528,6.790803495,0.0006117165737
243,0.010875,0.000625,0.000125,11336.79005,6.819896526,0.0006015720935
244,0.011125,0.000625,0.000125,11571.90382,6.849013643,0.0005918657596
245,0.011375,0.000625,0.000125,11806.49162,6.878139757,0.0005825727048
246,0.011625,0.000625,0.000125,12040.47975,6.907260192,0.0005736698483
247,0.011875,0.000625,0.000125,12273.80282,6.936364467,0.0005651357258
248,0.012125,0.000625,0.000125,12506.40057,6.965442,0.0005569501763
249,0.012375,0.000625,0.000125,12738.21453,6.994483906,0.0005490945289
250,0.012625,0.000625,0.000125,12969.18964,7.023482678,0.0005415513903
251,0.012875,0.000625,0.000125,13199.27369,7.052432735,0.0005343046064
252,0.013125,0.000625,0.000125,13428.41807,7.081330273,0.0005273391278
253,0.013375,0.000625,0.000125,13656.57904,7.110172941,0.0005206408515
254,0.013625,0.000625,0.000125,13883.71718,7.138959677,0.0005141965645
255,0.013875,0.000625,0.000125,14109.79684,7.167690839,0.0005079939079
256,0.014125,0.000625,0.000125,14334.78592,7.196368303,0.0005020213308
257,0.014375,0.000625,0.000125,14558.65647,7.224994632,0.0004962679523
258,0.014625,0.000625,0.000125,14781.38325,7.253572953,0.000490723556
259,0.014875,0.000625,0.000125,15002.94118,7.282107082,0.0004853786329
260,0.015125,0.000625,0.000125,15223.30536,7.310601742,0.0004802243382
261,0.015375,0.000625,0.000125,15442.45144,7.339062462,0.0004752524229
262,0.015625,0.000625,0.000125,15660.35509,7.36749529,0.0004704551876
263,0.015875,0.000625,0.000125,15876.99105,7.395906527,0.0004658254517
264,0.016125,0.000625,0.000125,16092.33226,7.424302503,0.0004613565258
265,0.016375,0.000625,0.000125,16306.34882,7.452689313,0.0004570421862
266,0.016625,0.000625,0.000125,16519.00675,7.481072493,0.0004528766533
267,0.016875,0.000625,0.000125,16730.26656,7.509456629,0.0004488545715
268,0.017125,0.000625,0.000125,16940.08143,7.537844896,0.0004449709954
269,0.017375,0.000625,0.000125,17148.39548,7.566238517,0.0004412213683
270,0.017625,0.000625,0.000125,17355.14026,7.594635806,0.0004376015228
271,0.017875,0.000625,0.000125,17560.23532,7.623031992,0.0004341076217
272,0.018125,0.000625,0.000125,17763.58913,7.651418549,0.0004307360688
273,0.018375,0.000625,0.000125,17965.08786,7.679784367,0.0004274838191
274,0.018625,0.000625,0.000125,18164.57192,7.708116928,0.0004243489448
275,0.018875,0.000625,0.000125,18361.86496,7.736394071,0.0004213294285
276,0.019125,0.000625,0.000125,18556.75161,7.764583549,0.0004184236397
277,0.019375,0.000625,0.000125,18748.96869,7.792642392,0.0004156304552
278,0.019625,0.000625,0.000125,18938.19545,7.820514807,0.0004129493134
279,0.019875,0.000625,0.000125,19124.04004,7.848128878,0.0004103802785
280,0.020125,0.000625,0.000125,19306.02582,7.875394029,0.0004079241426
281,0.020375,0.000625,0.000125,19483.57241,7.902198056,0.0004055826052
282,0.020625,0.000625,0.000125,19655.97728,7.928404916,0.0004033584696
283,0.020875,0.000625,0.000125,19822.38018,7.953836547,0.0004012553728
284,0.021125,0.000625,0.000125,19981.71126,7.978265653,0.0003992783976
285,0.021375,0.000625,0.000125,20132.63791,8.001394423,0.0003974339805
286,0.021625,0.000625,0.000125,20273.14996,8.022807136,0.0003957355987
287,0.021875,0.000625,0.000125,20397.90933,8.041577573,0.0003942353817
288,0.022125,0.000625,0.000125,20512.2999,8.058651353,0.0003928692244
289,0.022375,0.000625,0.000125,20619.89183,8.07461447,0.0003915934447
290,0.022625,0.000625,0.000125,20718.87413,8.088972107,0.0003904156209
291,0.022875,0.000625,0.000125,20806.7061,8.100883821,0.0003893400417
292,0.023125,0.000625,0.000125,20880.80371,8.109798542,0.0003883853636
293,0.023375,0.000625,0.000125,20937.19272,8.114506339,0.0003875641995
294,0.023625,0.000625,0.000125,20972.00571,8.114476649,0.0003869194373
295,0.023875,0.000625,0.000125,20979.42395,8.108683388,0.0003865064841
296,0.024125,0.000625,0.000125,20952.64549,8.096351434,0.0003864118943
297,0.024375,0.000625,0.000125,20884.95343,8.078069488,0.0003867889635
298,0.024625,0.000625,0.000125,20763.77161,8.052473653,0.0003878136307
299,0.024875,0.000625,0.000125,20580.47131,8.02184084,0.0003897792581
300,0.000125,0.000875,0.000125,2451.335424,5.99693143,0.002446393656
301,0.000375,0.000875,0.000125,2456.333053,5.993802526,0.002440142439
302,0.000625,0.000875,0.000125,2465.46811,5.990797595,0.00242988241
303,0.000875,0.000875,0.000125,2478.929111,5.987953049,0.002415540252
304,0.001125,0.000875,0.000125,2496.697356,5.985299322,0.002397286682
305,0.001375,0.000875,0.000125,2518.631535,5.982860492,0.002375440952
306,0.001625,0.000875,0.000125,2544.522088,5.9806538,0.00235040357
307,0.001875,0.000875,0.000125,2574.128034,5.97869167,0.002322608507
308,0.002125,0.000875,0.000125,2607.1983,5.976983094,0.002292492709
309,0.002375,0.000875,0.000125,2643.486164,5.975534686,0.002260475113
310,0.002625,0.000875,0.000125,2682.755103,5.974350275,0.002226945825
311,0.002875,0.000875,0.000125,2724.782856,5.973431434,0.002192259622
312,0.003125,0.000875,0.000125,2769.365783,5.972778099,0.002156731384
313,0.003375,0.000875,0.000125,2816.31788,5.972388774,0.00212063731
314,0.003625,0.000875,0.000125,2865.468553,5.97226097,0.002084217942
315,0.003875,0.000875,0.000125,2916.662174,5.972391115,0.002047680108
316,0.004125,0.000875,0.000125,2969.757377,5.972774805,0.002011199586
317,0.004375,0.000875,0.000125,3024.625811,5.973406973,0.001974924287
318,0.004625,0.000875,0.000125,3081.150712,5.974281968,0.00193897752
319,0.004875,0.000875,0.000125,3139.226872,5.975393904,0.001903460358
320,0.005125,0.000875,0.000125,3198.758062,5.976736644,0.001868455359
321,0.005375,0.000875,0.000125,3259.654665,5.978303419,0.001834029685
322,0.005625,0.000875,0.000125,3321.83498,5.980087236,0.001800236096
323,0.005875,0.000875,0.000125,3385.2241,5.982080991,0.001767115208
324,0.006125,0.000875,0.000125,3449.752759,5.984277388,0.001734697471
325,0.006375,0.000875,0.000125,3515.356565,5.98666903,0.001703004779
326,0.006625,0.000875,0.000125,3581.97576,5.989248412,0.001672051631
327,0.006875,0.000875,0.000125,3649.554727,5.992007982,0.001641846316
328,0.007125,0.000875,0.000125,3718.040124,5.994937025,0.001612391697
329,0.007375,0.000875,0.000125,3787.378129,5.998021608,0.001583687027
330,0.007625,0.000875,0.000125,3857.519371,6.001254475,0.001555728928
331,0.007875,0.000875,0.000125,3928.418797,6.004628286,0.001528510221
332,0.008125,0.000875,0.000125,4000.033997,6.008135444,0.001502021095
333,0.008375,0.000875,0.000125,4072.323847,6.011768061,0.001476249996
334,0.008625,0.000875,0.000125,4145.250078,6.01551902,0.001451183621
335,0.008875,0.000875,0.000125,4218.775084,6.019380023,0.001426807522
336,0.009125,0.000875,0.000125,4292.864799,6.02334882,0.001403107039
337,0.009375,0.000875,0.000125,4367.48759,6.02742103,0.001380065977
338,0.009625,0.000875,0.000125,4442.611402,6.031590013,0.001357667702
339,0.009875,0.000875,0.000125,4518.204424,6.035849254,0.001335895565
340,0.010125,0.000875,0.000125,4594.235876,6.040192468,0.001314732772
341,0.010375,0.000875,0.000125,4670.676222,6.044613615,0.001294162414
342,0.010625,0.000875,0.000125,4747.497073,6.049106724,0.001274167552
343,0.010875,0.000875,0.000125,4824.671179,6.053666274,0.001254731369
344,0.011125,0.000875,0.000125,4902.172354,6.058287171,0.001235837244
345,0.011375,0.000875,0.000125,4979.975251,6.062964517,0.001217468805
346,0.011625,0.000875,0.000125,5058.056044,6.067693943,0.001199609868
347,0.011875,0.000875,0.000125,5136.391551,6.072471129,0.001182244591
348,0.012125,0.000875,0.000125,5214.959184,6.077292554,0.001165357645
349,0.012375,0.000875,0.000125,5293.737493,6.082154629,0.001148933931
350,0.012625,0.000875,0.000125,5372.706918,6.087056537,0.001132958978
351,0.012875,0.000875,0.000125,5451.846078,6.091994449,0.001117418644
352,0.013125,0.000875,0.000125,5531.133544,6.096963937,0.001102299174
353,0.013375,0.000875,0.000125,5610.549754,6.101962459,0.001087587265
354,0.013625,0.000875,0.000125,5690.074897,6.10698582,0.001073269848
355,0.013875,0.000875,0.000125,5769.691284,6.112032994,0.001059334494
356,0.014125,0.000875,0.000125,5849.378355,6.117097265,0.00104576878
357,0.014375,0.000875,0.000125,5929.119847,6.122177999,0.001032561013
358,0.014625,0.000875,0.000125,6008.899986,6.127274747,0.001019699905
359,0.014875,0.000875,0.000125,6088.702138,6.132386751,0.0010071747
360,0.015125,0.000875,0.000125,6168.509175,6.137513297,0.0009949751427
361,0.015375,0.000875,0.000125,6248.3036,6.14265371,0.0009830914283
362,0.015625,0.000875,0.000125,6328.067302,6.147807249,0.000971514201
363,0.015875,0.000875,0.000125,6407.781286,6.152973047,0.0009602345606
364,0.016125,0.000875,0.000125,6487.425429,6.158150093,0.0009492440662
365,0.016375,0.000875,0.000125,6566.978172,6.163337169,0.0009385347428
366,0.016625,0.000875,0.000125,6646.416114,6.168532769,0.0009280990933
367,0.016875,0.000875,0.000125,6725.713565,6.17373501,0.0009179301125
368,0.017125,0.000875,0.000125,6804.841933,6.178941539,0.0009080213177
369,0.017375,0.000875,0.000125,6883.769615,6.18414937,0.0008983666967
370,0.017625,0.000875,0.000125,6962.459585,6.189355193,0.0008889610226
371,0.017875,0.000875,0.000125,7040.870761,6.194554687,0.0008797995159
372,0.018125,0.000875,0.000125,7118.957159,6.19974228,0.0008708778745
373,0.018375,0.000875,0.000125,7196.663886,6.204910436,0.0008621926123
374,0.018625,0.000875,0.000125,7273.919566,6.210048831,0.0008537417516
375,0.018875,0.000875,0.000125,7350.646689,6.215146027,0.0008455237055
376,0.019125,0.000875,0.000125,7426.754253,6.220188093,0.0008375378909
377,0.019375,0.000875,0.000125,7502.134223,6.225157884,0.0008297849251
378,0.019625,0.000875,0.000125,7576.657722,6.230033982,0.0008222667845
379,0.019875,0.000875,0.000125,7650.170526,6.234790494,0.0008149871264
380,0.020125,0.000875,0.000125,7722.485338,6.239391254,0.0008079511946
381,0.020375,0.000875,0.000125,7793.382575,6.243801118,0.0008011670231
382,0.020625,0.000875,0.000125,7862.570199,6.247936633,0.0007946430334
383,0.020875,0.000875,0.000125,7929.737876,6.251753557,0.0007883934696
384,0.021125,0.000875,0.000125,7994.469998,6.255154011,0.0007824351099
385,0.021375,0.000875,0.000125,8055.895421,6.258047628,0.0007768283103
386,0.021625,0.000875,0.000125,8113.229442,6.260323581,0.0007716191962
387,0.021875,0.000875,0.000125,8168.838844,6.262308946,0.0007666094369
388,0.022125,0.000875,0.000125,8222.367295,6.263950969,0.0007618184331
389,0.022375,0.000875,0.000125,8273.450503,6.265212677,0.0007572671976
390,0.022625,0.000875,0.000125,8321.738119,6.266178577,0.0007529891577
391,0.022875,0.000875,0.000125,8366.834176,6.267069628,0.0007490371503
392,0.023125,0.000875,0.000125,8407.940018,6.267737045,0.0007454545384
393,0.023375,0.000875,0.000125,8444.323096,6.268459921,0.0007423282897
394,0.023625,0.000875,0.000125,8474.45511,6.268752013,0.0007397233134
395,0.023875,0.000875,0.000125,8497.091629,6.268883599,0.0007377681533
396,0.024125,0.000875,0.000125,8510.925529,6.269584208,0.0007366512827
397,0.024375,0.000875,0.000125,8514.683081,6.272235993,0.0007366376332
398,0.024625,0.000875,0.000125,8506.98526,6.27886782,0.0007380837781
399,0.024875,0.000875,0.000125,8487.682675,6.293647322,0.0007415036073
400,0.000125,0.001125,0.000125,2449.087672,5.996874469,0.002448615677
401,0.000375,0.001125,0.000125,2448.403109,5.993611025,0.002447967412
402,0.000625,0.001125,0.000125,2448.151694,5.99036098,0.002446891259
403,0.000875,0.001125,0.000125,2448.489174,5.987130905,0.002445234788
404,0.001125,0.001125,0.000125,2449.554855,5.983927556,0.002442863259
405,0.001375,0.001125,0.000125,2451.467059,5.980757739,0.002439664738
406,0.001625,0.001125,0.000125,2454.321491,5.977627627,0.002435552004
407,0.001875,0.001125,0.000125,2458.191883,5.974542831,0.002430462354
408,0.002125,0.001125,0.000125,2463.131737,5.971508601,0.002424356161
409,0.002375,0.001125,0.000125,2469.176638,5.968529895,0.002417214631
410,0.002625,0.001125,0.000125,2476.346615,5.965611149,0.002409037214
411,0.002875,0.001125,0.000125,2484.648444,5.962756038,0.002399838919
412,0.003125,0.001125,0.000125,2494.078275,5.959967891,0.002389647491
413,0.003375,0.001125,0.000125,2504.623821,5.957249788,0.002378500811
414,0.003625,0.001125,0.000125,2516.265876,5.954604233,0.002366444775
415,0.003875,0.001125,0.000125,2528.979755,5.952033015,0.002353531302
416,0.004125,0.001125,0.000125,2542.736708,5.949537351,0.002339816518
417,0.004375,0.001125,0.000125,2557.505122,5.947118045,0.002325359193
418,0.004625,0.001125,0.000125,2573.251447,5.944775532,0.002310219446
419,0.004875,0.001125,0.000125,2589.941042,5.942509954,0.002294457618
420,0.005125,0.001125,0.000125,2607.538696,5.940321162,0.002278133464
421,0.005375,0.001125,0.000125,2626.008913,5.938208645,0.002261305594
422,0.005625,0.001125,0.000125,2645.316453,5.936171634,0.002244030814
423,0.005875,0.001125,0.000125,2665.426657,5.934209165,0.002226363704
424,0.006125,0.001125,0.000125,2686.305691,5.932320125,0.00220835631
425,0.006375,0.001125,0.000125,2707.920575,5.930503179,0.002190058022
426,0.006625,0.001125,0.000125,2730.239413,5.928756894,0.002171515387