cellI,x,y,z,S,omega,k,nut
20000,0.025,0.010125,0.000125,6.25e-08,551888.6719,131.2765554,0.0002378678203
20400,0.025,0.010375,0.000125,6.25e-08,511390.9874,14.01019675,2.739625277e-05
20800,0.025,0.010625,0.000125,6.25e-08,726942.643,2.220446049e-16,2.220446049e-16
21200,0.025,0.010875,0.000125,6.25e-08,726942.643,2.220446049e-16,2.220446049e-16
21600,0.025,0.011125,0.000125,6.25e-08,726942.643,2.220446049e-16,2.220446049e-16
22000,0.025,0.011375,0.000125,6.25e-08,726942.643,2.220446049e-16,2.220446049e-16
22400,0.025,0.011625,0.000125,6.25e-08,726942.643,2.220446049e-16,2.220446049e-16
22800,0.025,0.011875,0.000125,6.25e-08,726942.643,2.220446049e-16,2.220446049e-16
23200,0.025,0.012125,0.000125,6.25e-08,726942.643,2.220446049e-16,2.220446049e-16
23600,0.025,0.012375,0.000125,6.25e-08,726942.643,2.220446049e-16,2.220446049e-16
24000,0.025,0.012625,0.000125,6.25e-08,726942.643,2.220446049e-16,2.220446049e-16
24400,0.025,0.012875,0.000125,6.25e-08,726942.643,2.220446049e-16,2.220446049e-16
24800,0.025,0.013125,0.000125,6.25e-08,726942.643,2.220446049e-16,2.220446049e-16
25200,0.025,0.013375,0.000125,6.25e-08,726942.643,2.220446049e-16,2.220446049e-16
25600,0.025,0.013625,0.000125,6.25e-08,726942.643,2.220446049e-16,2.220446049e-16
26000,0.025,0.013875,0.000125,6.25e-08,726942.643,2.220446049e-16,2.220446049e-16
26400,0.025,0.014125,0.000125,6.25e-08,726942.643,2.220446049e-16,2.220446049e-16
26800,0.025,0.014375,0.000125,6.25e-08,726942.643,2.220446049e-16,2.220446049e-16
27200,0.025,0.014625,0.000125,6.25e-08,726942.643,2.220446049e-16,2.220446049e-16
27600,0.025,0.014875,0.000125,6.25e-08,726942.643,2.220446049e-16,2.220446049e-16
27600,0.025125,0.015,0.000125,6.25e-08,726942.643,2.220446049e-16,2.220446049e-16
27601,0.025375,0.015,0.000125,6.25e-08,726942.643,2.220446049e-16,2.220446049e-16
27602,0.025625,0.015,0.000125,6.25e-08,726942.643,2.220446049e-16,2.220446049e-16
27603,0.025875,0.015,0.000125,6.25e-08,726942.643,2.220446049e-16,2.220446049e-16
27604,0.026125,0.015,0.000125,6.25e-08,726942.643,2.220446049e-16,2.220446049e-16
27605,0.026375,0.015,0.000125,6.25e-08,726942.643,2.220446049e-16,2.220446049e-16
27606,0.026625,0.015,0.000125,6.25e-08,726942.643,2.220446049e-16,2.220446049e-16
27607,0.026875,0.015,0.000125,6.25e-08,726942.643,2.220446049e-16,2.220446049e-16
27608,0.027125,0.015,0.000125,6.25e-08,726942.643,2.220446049e-16,2.220446049e-16
27609,0.027375,0.015,0.000125,6.25e-08,726942.643,2.220446049e-16,2.220446049e-16
27610,0.027625,0.015,0.000125,6.25e-08,726942.643,2.220446049e-16,2.220446049e-16
27611,0.027875,0.015,0.000125,6.25e-08,726942.643,2.220446049e-16,2.220446049e-16
27612,0.028125,0.015,0.000125,6.25e-08,726942.643,2.220446049e-16,2.220446049e-16
27613,0.028375,0.015,0.000125,6.25e-08,726942.643,2.220446049e-16,2.220446049e-16
27614,0.028625,0.015,0.000125,6.25e-08,726942.643,2.220446049e-16,2.220446049e-16
27615,0.028875,0.015,0.000125,6.25e-08,726942.643,2.220446049e-16,2.220446049e-16
27616,0.029125,0.015,0.000125,6.25e-08,726942.643,2.220446049e-16,2.220446049e-16
27617,0.029375,0.015,0.000125,6.25e-08,726942.643,2.220446049e-16,2.220446049e-16
27618,0.029625,0.015,0.000125,6.25e-08,726942.643,2.220446049e-16,2.220446049e-16
27619,0.029875,0.015,0.000125,6.25e-08,726942.643,2.220446049e-16,2.220446049e-16
27620,0.030125,0.015,0.000125,6.25e-08,726942.643,2.220446049e-16,2.220446049e-16
27621,0.030375,0.015,0.000125,6.25e-08,726942.643,2.220446049e-16,2.220446049e-16
27622,0.030625,0.015,0.000125,6.25e-08,726942.643,2.220446049e-16,2.220446049e-16
27623,0.030875,0.015,0.000125,6.25e-08,726942.643,2.220446049e-16,2.220446049e-16
27624,0.031125,0.015,0.000125,6.25e-08,726942.643,2.220446049e-16,2.220446049e-16
27625,0.031375,0.015,0.000125,6.25e-08,726942.643,2.220446049e-16,2.220446049e-16
27626,0.031625,0.015,0.000125,6.25e-08,726942.643,2.220446049e-16,2.220446049e-16
27627,0.031875,0.015,0.000125,6.25e-08,726942.643,2.220446049e-16,2.220446049e-16
27628,0.032125,0.015,0.000125,6.25e-08,726942.643,2.220446049e-16,2.220446049e-16
27629,0.032375,0.015,0.000125,6.25e-08,726942.643,2.220446049e-16,2.220446049e-16
27630,0.032625,0.015,0.000125,6.25e-08,726942.643,2.220446049e-16,2.220446049e-16
27631,0.032875,0.015,0.000125,6.25e-08,726942.643,2.220446049e-16,2.220446049e-16
27632,0.033125,0.015,0.000125,6.25e-08,726942.643,2.220446049e-16,2.220446049e-16
27633,0.033375,0.015,0.000125,6.25e-08,726942.643,2.220446049e-16,2.220446049e-16
27634,0.033625,0.015,0.000125,6.25e-08,726942.643,2.220446049e-16,2.220446049e-16
27635,0.033875,0.015,0.000125,6.25e-08,726942.643,2.220446049e-16,2.220446049e-16
27636,0.034125,0.015,0.000125,6.25e-08,726942.643,2.220446049e-16,2.220446049e-16
27637,0.034375,0.015,0.000125,6.25e-08,726942.643,2.220446049e-16,2.220446049e-16
27638,0.034625,0.015,0.000125,6.25e-08,726942.643,2.220446049e-16,2.220446049e-16
27639,0.034875,0.015,0.000125,6.25e-08,726942.643,2.220446049e-16,2.220446049e-16
27640,0.035125,0.015,0.000125,6.25e-08,726942.643,2.220446049e-16,2.220446049e-16
27641,0.035375,0.015,0.000125,6.25e-08,726942.643,2.220446049e-16,2.220446049e-16
27642,0.035625,0.015,0.000125,6.25e-08,726942.643,2.220446049e-16,2.220446049e-16
27643,0.035875,0.015,0.000125,6.25e-08,726942.643,2.220446049e-16,2.220446049e-16
27644,0.036125,0.015,0.000125,6.25e-08,726942.643,2.220446049e-16,2.220446049e-16
27645,0.036375,0.015,0.000125,6.25e-08,726942.643,2.220446049e-16,2.220446049e-16
27646,0.036625,0.015,0.000125,6.25e-08,726942.643,2.220446049e-16,2.220446049e-16
27647,0.036875,0.015,0.000125,6.25e-08,726942.643,2.220446049e-16,2.220446049e-16
27648,0.037125,0.015,0.000125,6.25e-08,726942.643,2.220446049e-16,2.220446049e-16
27649,0.037375,0.015,0.000125,6.25e-08,726942.643,2.220446049e-16,2.220446049e-16
27650,0.037625,0.015,0.000125,6.25e-08,726942.643,2.220446049e-16,2.220446049e-16
27651,0.037875,0.015,0.000125,6.25e-08,726942.643,2.220446049e-16,2.220446049e-16
27652,0.038125,0.015,0.000125,6.25e-08,726942.643,2.220446049e-16,2.220446049e-16
27653,0.038375,0.015,0.000125,6.25e-08,726942.643,2.220446049e-16,2.220446049e-16
27654,0.038625,0.015,0.000125,6.25e-08,726942.643,2.220446049e-16,2.220446049e-16
27655,0.038875,0.015,0.000125,6.25e-08,726942.643,2.220446049e-16,2.220446049e-16
27656,0.039125,0.015,0.000125,6.25e-08,726942.643,2.220446049e-16,2.220446049e-16
27657,0.039375,0.015,0.000125,6.25e-08,726942.643,2.220446049e-16,2.220446049e-16
27658,0.039625,0.015,0.000125,6.25e-08,726942.643,2.220446049e-16,2.220446049e-16
27659,0.039875,0.015,0.000125,6.25e-08,726942.643,2.220446049e-16,2.220446049e-16
27660,0.040125,0.015,0.000125,6.25e-08,726942.643,2.220446049e-16,2.220446049e-16
27661,0.040375,0.015,0.000125,6.25e-08,726942.643,2.220446049e-16,2.220446049e-16
27662,0.040625,0.015,0.000125,6.25e-08,726942.643,2.220446049e-16,2.220446049e-16
27663,0.040875,0.015,0.000125,6.25e-08,726942.643,2.220446049e-16,2.220446049e-16
27664,0.041125,0.015,0.000125,6.25e-08,726942.643,2.220446049e-16,2.220446049e-16
27665,0.041375,0.015,0.000125,6.25e-08,726942.643,2.220446049e-16,2.220446049e-16
27666,0.041625,0.015,0.000125,6.25e-08,726942.643,2.220446049e-16,2.220446049e-16
27667,0.041875,0.015,0.000125,6.25e-08,726942.643,2.220446049e-16,2.220446049e-16
27668,0.042125,0.015,0.000125,6.25e-08,726942.643,2.220446049e-16,2.220446049e-16
27669,0.042375,0.015,0.000125,6.25e-08,726942.643,2.220446049e-16,2.220446049e-16
27670,0.042625,0.015,0.000125,6.25e-08,726942.643,2.220446049e-16,2.220446049e-16
27671,0.042875,0.015,0.000125,6.25e-08,726942.643,2.220446049e-16,2.220446049e-16
27672,0.043125,0.015,0.000125,6.25e-08,726942.643,2.220446049e-16,2.220446049e-16
27673,0.043375,0.015,0.000125,6.25e-08,726942.643,2.220446049e-16,2.220446049e-16
27674,0.043625,0.015,0.000125,6.25e-08,726942.643,2.220446049e-16,2.220446049e-16
27675,0.043875,0.015,0.000125,6.25e-08,726942.643,2.220446049e-16,2.220446049e-16
27676,0.044125,0.015,0.000125,6.25e-08,726942.643,2.220446049e-16,2.220446049e-16
27677,0.044375,0.015,0.000125,6.25e-08,726942.643,2.220446049e-16,2.220446049e-16
27678,0.044625,0.015,0.000125,6.25e-08,726942.643,2.220446049e-16,2.220446049e-16
27679,0.044875,0.015,0.000125,6.25e-08,726942.643,2.220446049e-16,2.220446049e-16
27680,0.045125,0.015,0.000125,6.25e-08,726942.643,2.220446049e-16,2.220446049e-16
27681,0.045375,0.015,0.000125,6.25e-08,726942.643,2.220446049e-16,2.220446049e-16
27682,0.045625,0.015,0.000125,6.25e-08,726942.643,2.220446049e-16,2.220446049e-16
27683,0.045875,0.015,0.000125,6.25e-08,726942.643,2.220446049e-16,2.220446049e-16
27684,0.046125,0.015,0.000125,6.25e-08,726942.643,2.220446049e-16,2.220446049e-16
27685,0.046375,0.015,0.000125,6.25e-08,726942.643,2.220446049e-16,2.220446049e-16
27686,0.046625,0.015,0.000125,6.25e-08,726942.643,2.220446049e-16,2.220446049e-16
27687,0.046875,0.015,0.000125,6.25e-08,726942.643,2.220446049e-16,2.220446049e-16
27688,0.047125,0.015,0.000125,6.25e-08,726942.643,2.220446049e-16,2.220446049e-16
27689,0.047375,0.015,0.000125,6.25e-08,726942.643,2.220446049e-16,2.220446049e-16
27690,0.047625,0.015,0.000125,6.25e-08,726942.643,2.220446049e-16,2.220446049e-16
27691,0.047875,0.015,0.000125,6.25e-08,726942.643,2.220446049e-16,2.220446049e-16
27692,0.048125,0.015,0.000125,6.25e-08,726942.643,2.220446049e-16,2.220446049e-16
27693,0.048375,0.015,0.000125,6.25e-08,726942.643,2.220446049e-16,2.220446049e-16
27694,0.048625,0.015,0.000125,6.25e-08,726942.643,2.220446049e-16,2.220446049e-16
27695,0.048875,0.015,0.000125,6.25e-08,726942.643,2.220446049e-16,2.220446049e-16
27696,0.049125,0.015,0.000125,6.25e-08,726942.643,2.220446049e-16,2.220446049e-16
27697,0.049375,0.015,0.000125,6.25e-08,726942.643,2.220446049e-16,2.220446049e-16
27698,0.049625,0.015,0.000125,6.25e-08,726942.643,2.220446049e-16,2.220446049e-16
27699,0.049875,0.015,0.000125,6.25e-08,726942.643,2.220446049e-16,2.220446049e-16
27700,0.050125,0.015,0.000125,6.25e-08,726942.643,2.220446049e-16,2.220446049e-16
27701,0.050375,0.015,0.000125,6.25e-08,726942.643,2.220446049e-16,2.220446049e-16
27702,0.050625,0.015,0.000125,6.25e-08,726942.643,2.220446049e-16,2.220446049e-16
27703,0.050875,0.015,0.000125,6.25e-08,726942.643,2.220446049e-16,2.220446049e-16
27704,0.051125,0.015,0.000125,6.25e-08,726942.643,2.220446049e-16,2.220446049e-16
27705,0.051375,0.015,0.000125,6.25e-08,726942.643,2.220446049e-16,2.220446049e-16
27706,0.051625,0.015,0.000125,6.25e-08,726942.643,2.220446049e-16,2.220446049e-16
27707,0.051875,0.015,0.000125,6.25e-08,726942.643,2.220446049e-16,2.220446049e-16
27708,0.052125,0.015,0.000125,6.25e-08,726942.643,2.220446049e-16,2.220446049e-16
27709,0.052375,0.015,0.000125,6.25e-08,726942.643,2.220446049e-16,2.220446049e-16
27710,0.052625,0.015,0.000125,6.25e-08,726942.643,2.220446049e-16,2.220446049e-16
27711,0.052875,0.015,0.000125,6.25e-08,726942.643,2.220446049e-16,2.220446049e-16
27712,0.053125,0.015,0.000125,6.25e-08,726942.643,2.220446049e-16,2.220446049e-16
27713,0.053375,0.015,0.000125,6.25e-08,726942.643,2.220446049e-16,2.220446049e-16
27714,0.053625,0.015,0.000125,6.25e-08,726942.643,2.220446049e-16,2.220446049e-16
27715,0.053875,0.015,0.000125,6.25e-08,726942.643,2.220446049e-16,2.220446049e-16
27716,0.054125,0.015,0.000125,6.25e-08,726942.643,2.220446049e-16,2.220446049e-16
27717,0.054375,0.015,0.000125,6.25e-08,726942.643,2.220446049e-16,2.220446049e-16
27718,0.054625,0.015,0.000125,6.25e-08,726942.643,2.220446049e-16,2.220446049e-16
27719,0.054875,0.015,0.000125,6.25e-08,726942.643,2.220446049e-16,2.220446049e-16
27720,0.055125,0.015,0.000125,6.25e-08,726942.643,2.220446049e-16,2.220446049e-16
27721,0.055375,0.015,0.000125,6.25e-08,726942.643,2.220446049e-16,2.220446049e-16
27722,0.055625,0.015,0.000125,6.25e-08,726942.643,2.220446049e-16,2.220446049e-16
27723,0.055875,0.015,0.000125,6.25e-08,726942.643,2.220446049e-16,2.220446049e-16
27724,0.056125,0.015,0.000125,6.25e-08,726942.643,2.220446049e-16,2.220446049e-16
27725,0.056375,0.015,0.000125,6.25e-08,726942.643,2.220446049e-16,2.220446049e-16
27726,0.056625,0.015,0.000125,6.25e-08,726942.643,2.220446049e-16,2.220446049e-16
27727,0.056875,0.015,0.000125,6.25e-08,726942.643,2.220446049e-16,2.220446049e-16
27728,0.057125,0.015,0.000125,6.25e-08,726942.643,2.220446049e-16,2.220446049e-16
27729,0.057375,0.015,0.000125,6.25e-08,726942.643,2.220446049e-16,2.220446049e-16
27730,0.057625,0.015,0.000125,6.25e-08,726942.643,2.220446049e-16,2.220446049e-16
27731,0.057875,0.015,0.000125,6.25e-08,726942.643,2.220446049e-16,2.220446049e-16
27732,0.058125,0.015,0.000125,6.25e-08,726942.643,2.220446049e-16,2.220446049e-16
27733,0.058375,0.015,0.000125,6.25e-08,726942.643,2.220446049e-16,2.220446049e-16
27734,0.058625,0.015,0.000125,6.25e-08,726942.643,2.220446049e-16,2.220446049e-16
27735,0.058875,0.015,0.000125,6.25e-08,726942.643,2.220446049e-16,2.220446049e-16
27736,0.059125,0.015,0.000125,6.25e-08,726942.643,2.220446049e-16,2.220446049e-16
27737,0.059375,0.015,0.000125,6.25e-08,726942.643,2.220446049e-16,2.220446049e-16
27738,0.059625,0.015,0.000125,6.25e-08,726942.643,2.220446049e-16,2.220446049e-16
27739,0.059875,0.015,0.000125,6.25e-08,726942.643,2.220446049e-16,2.220446049e-16
27740,0.060125,0.015,0.000125,6.25e-08,726942.643,2.220446049e-16,2.220446049e-16
27741,0.060375,0.015,0.000125,6.25e-08,726942.643,2.220446049e-16,2.220446049e-16
27742,0.060625,0.015,0.000125,6.25e-08,726942.643,2.220446049e-16,2.220446049e-16
27743,0.060875,0.015,0.000125,6.25e-08,726942.643,2.220446049e-16,2.220446049e-16
27744,0.061125,0.015,0.000125,6.25e-08,726942.643,2.220446049e-16,2.220446049e-16
27745,0.061375,0.015,0.000125,6.25e-08,726942.643,2.220446049e-16,2.220446049e-16
27746,0.061625,0.015,0.000125,6.25e-08,726942.643,2.220446049e-16,2.220446049e-16
27747,0.061875,0.015,0.000125,6.25e-08,726942.643,2.220446049e-16,2.220446049e-16
27748,0.062125,0.015,0.000125,6.25e-08,726942.643,2.220446049e-16,2.220446049e-16
27749,0.062375,0.015,0.000125,6.25e-08,726942.643,2.220446049e-16,2.220446049e-16
27750,0.062625,0.015,0.000125,6.25e-08,726942.643,2.220446049e-16,2.220446049e-16
27751,0.062875,0.015,0.000125,6.25e-08,726942.643,2.220446049e-16,2.220446049e-16
27752,0.063125,0.015,0.000125,6.25e-08,726942.643,2.220446049e-16,2.220446049e-16
27753,0.063375,0.015,0.000125,6.25e-08,726942.643,2.220446049e-16,2.220446049e-16
27754,0.063625,0.015,0.000125,6.25e-08,726942.643,2.220446049e-16,2.220446049e-16
27755,0.063875,0.015,0.000125,6.25e-08,726942.643,2.220446049e-16,2.220446049e-16
27756,0.064125,0.015,0.000125,6.25e-08,726942.643,2.220446049e-16,2.220446049e-16
27757,0.064375,0.015,0.000125,6.25e-08,726942.643,2.220446049e-16,2.220446049e-16
27758,0.064625,0.015,0.000125,6.25e-08,726942.643,2.220446049e-16,2.220446049e-16
27759,0.064875,0.015,0.000125,6.25e-08,726942.643,2.220446049e-16,2.220446049e-16
27760,0.065125,0.015,0.000125,6.25e-08,726942.643,2.220446049e-16,2.220446049e-16
27761,0.065375,0.015,0.000125,6.25e-08,726942.643,2.220446049e-16,2.220446049e-16
27762,0.065625,0.015,0.000125,6.25e-08,726942.643,2.220446049e-16,2.220446049e-16
27763,0.065875,0.015,0.000125,6.25e-08,726942.643,2.220446049e-16,2.220446049e-16
27764,0.066125,0.015,0.000125,6.25e-08,726942.643,2.220446049e-16,2.220446049e-16
27765,0.066375,0.015,0.000125,6.25e-08,726942.643,2.220446049e-16,2.220446049e-16
27766,0.066625,0.015,0.000125,6.25e-08,726942.643,2.220446049e-16,2.220446049e-16
27767,0.066875,0.015,0.000125,6.25e-08,726942.643,2.220446049e-16,2.220446049e-16
27768,0.067125,0.015,0.000125,6.25e-08,726942.643,2.220446049e-16,2.220446049e-16
27769,0.067375,0.015,0.000125,6.25e-08,726942.643,2.220446049e-16,2.220446049e-16
27770,0.067625,0.015,0.000125,6.25e-08,726942.643,2.220446049e-16,2.220446049e-16
27771,0.067875,0.015,0.000125,6.25e-08,726942.643,2.220446049e-16,2.220446049e-16
27772,0.068125,0.015,0.000125,6.25e-08,726942.643,2.220446049e-16,2.220446049e-16
27773,0.068375,0.015,0.000125,6.25e-08,726942.643,2.220446049e-16,2.220446049e-16
27774,0.068625,0.015,0.000125,6.25e-08,726942.643,2.220446049e-16,2.220446049e-16
27775,0.068875,0.015,0.000125,6.25e-08,726942.643,2.220446049e-16,2.220446049e-16
27776,0.069125,0.015,0.000125,6.25e-08,726942.643,2.220446049e-16,2.220446049e-16
27777,0.069375,0.015,0.000125,6.25e-08,726942.643,2.220446049e-16,2.220446049e-16
27778,0.069625,0.015,0.000125,6.25e-08,726942.643,2.220446049e-16,2.220446049e-16
27779,0.069875,0.015,0.000125,6.25e-08,726942.643,2.220446049e-16,2.220446049e-16
27780,0.070125,0.015,0.000125,6.25e-08,726942.643,2.220446049e-16,2.220446049e-16
27781,0.070375,0.015,0.000125,6.25e-08,726942.643,2.220446049e-16,2.220446049e-16
27782,0.070625,0.015,0.000125,6.25e-08,726942.643,2.220446049e-16,2.220446049e-16
27783,0.070875,0.015,0.000125,6.25e-08,726942.643,2.220446049e-16,2.220446049e-16
27784,0.071125,0.015,0.000125,6.25e-08,726942.643,2.220446049e-16,2.220446049e-16
27785,0.071375,0.015,0.000125,6.25e-08,726942.643,2.220446049e-16,2.220446049e-16
27786,0.071625,0.015,0.000125,6.25e-08,726942.643,2.220446049e-16,2.220446049e-16
27787,0.071875,0.015,0.000125,6.25e-08,726942.643,2.220446049e-16,2.220446049e-16
27788,0.072125,0.015,0.000125,6.25e-08,726942.643,2.220446049e-16,2.220446049e-16
27789,0.072375,0.015,0.000125,6.25e-08,726942.643,2.220446049e-16,2.220446049e-16
27790,0.072625,0.015,0.000125,6.25e-08,726942.643,2.220446049e-16,2.220446049e-16
27791,0.072875,0.015,0.000125,6.25e-08,726942.643,2.220446049e-16,2.220446049e-16
27792,0.073125,0.015,0.000125,6.25e-08,726942.643,2.220446049e-16,2.220446049e-16
27793,0.073375,0.015,0.000125,6.25e-08,726942.643,2.220446049e-16,2.220446049e-16
27794,0.073625,0.015,0.000125,6.25e-08,726942.643,2.220446049e-16,2.220446049e-16
27795,0.073875,0.015,0.000125,6.25e-08,726942.643,2.220446049e-16,2.220446049e-16
27796,0.074125,0.015,0.000125,6.25e-08,726942.643,2.220446049e-16,2.220446049e-16
27797,0.074375,0.015,0.000125,6.25e-08,726942.643,2.220446049e-16,2.220446049e-16
27798,0.074625,0.015,0.000125,6.25e-08,726942.643,2.220446049e-16,2.220446049e-16
27799,0.074875,0.015,0.000125,6.25e-08,726942.643,2.220446049e-16,2.220446049e-16
27800,0.075125,0.015,0.000125,6.25e-08,726942.643,2.220446049e-16,2.220446049e-16
27801,0.075375,0.015,0.000125,6.25e-08,726942.643,2.220446049e-16,2.220446049e-16
27802,0.075625,0.015,0.000125,6.25e-08,726942.643,2.220446049e-16,2.220446049e-16
27803,0.075875,0.015,0.000125,6.25e-08,726942.643,2.220446049e-16,2.220446049e-16
27804,0.076125,0.015,0.000125,6.25e-08,726942.643,2.220446049e-16,2.220446049e-16
27805,0.076375,0.015,0.000125,6.25e-08,726942.643,2.220446049e-16,2.220446049e-16
27806,0.076625,0.015,0.000125,6.25e-08,726942.643,2.220446049e-16,2.220446049e-16
27807,0.076875,0.015,0.000125,6.25e-08,726942.643,2.220446049e-16,2.220446049e-16
27808,0.077125,0.015,0.000125,6.25e-08,726942.643,2.220446049e-16,2.220446049e-16
27809,0.077375,0.015,0.000125,6.25e-08,726942.643,2.220446049e-16,2.220446049e-16
27810,0.077625,0.015,0.000125,6.25e-08,726942.643,2.220446049e-16,2.220446049e-16
27811,0.077875,0.015,0.000125,6.25e-08,726942.643,2.220446049e-16,2.220446049e-16
27812,0.078125,0.015,0.000125,6.25e-08,726942.643,2.220446049e-16,2.220446049e-16
27813,0.078375,0.015,0.000125,6.25e-08,726942.643,2.220446049e-16,2.220446049e-16
27814,0.078625,0.015,0.000125,6.25e-08,726942.643,2.220446049e-16,2.220446049e-16
27815,0.078875,0.015,0.000125,6.25e-08,726942.643,2.220446049e-16,2.220446049e-16
27816,0.079125,0.015,0.000125,6.25e-08,726942.643,2.220446049e-16,2.220446049e-16
27817,0.079375,0.015,0.000125,6.25e-08,726942.643,2.220446049e-16,2.220446049e-16
27818,0.079625,0.015,0.000125,6.25e-08,726942.643,2.220446049e-16,2.220446049e-16
27819,0.079875,0.015,0.000125,6.25e-08,726942.643,2.220446049e-16,2.220446049e-16
27820,0.080125,0.015,0.000125,6.25e-08,726942.643,2.220446049e-16,2.220446049e-16
27821,0.080375,0.015,0.000125,6.25e-08,726942.643,2.220446049e-16,2.220446049e-16
27822,0.080625,0.015,0.000125,6.25e-08,726942.643,2.220446049e-16,2.220446049e-16
27823,0.080875,0.015,0.000125,6.25e-08,726942.643,2.220446049e-16,2.220446049e-16
27824,0.081125,0.015,0.000125,6.25e-08,726942.643,2.220446049e-16,2.220446049e-16
27825,0.081375,0.015,0.000125,6.25e-08,726942.643,2.220446049e-16,2.220446049e-16
27826,0.081625,0.015,0.000125,6.25e-08,726942.643,2.220446049e-16,2.220446049e-16
27827,0.081875,0.015,0.000125,6.25e-08,726942.643,2.220446049e-16,2.220446049e-16
27828,0.082125,0.015,0.000125,6.25e-08,726942.643,2.220446049e-16,2.220446049e-16
27829,0.082375,0.015,0.000125,6.25e-08,726942.643,2.220446049e-16,2.220446049e-16
27830,0.082625,0.015,0.000125,6.25e-08,726942.643,2.220446049e-16,2.220446049e-16
27831,0.082875,0.015,0.000125,6.25e-08,726942.643,2.220446049e-16,2.220446049e-16
27832,0.083125,0.015,0.000125,6.25e-08,726942.643,2.220446049e-16,2.220446049e-16
27833,0.083375,0.015,0.000125,6.25e-08,726942.643,2.220446049e-16,2.220446049e-16
27834,0.083625,0.015,0.000125,6.25e-08,726942.643,2.220446049e-16,2.220446049e-16
27835,0.083875,0.015,0.000125,6.25e-08,726942.643,2.220446049e-16,2.220446049e-16
27836,0.084125,0.015,0.000125,6.25e-08,726942.643,2.220446049e-16,2.220446049e-16
27837,0.084375,0.015,0.000125,6.25e-08,726942.643,2.220446049e-16,2.220446049e-16
27838,0.084625,0.015,0.000125,6.25e-08,726942.643,2.220446049e-16,2.220446049e-16
27839,0.084875,0.015,0.000125,6.25e-08,726942.643,2.220446049e-16,2.220446049e-16
27840,0.085125,0.015,0.000125,6.25e-08,726942.643,2.220446049e-16,2.220446049e-16
27841,0.085375,0.015,0.000125,6.25e-08,726942.643,2.220446049e-16,2.220446049e-16
27842,0.085625,0.015,0.000125,6.25e-08,726942.643,2.220446049e-16,2.220446049e-16
27843,0.085875,0.015,0.000125,6.25e-08,726942.643,2.220446049e-16,2.220446049e-16
27844,0.086125,0.015,0.000125,6.25e-08,726942.643,2.220446049e-16,2.220446049e-16
27845,0.086375,0.015,0.000125,6.25e-08,726942.643,2.220446049e-16,2.220446049e-16
27846,0.086625,0.015,0.000125,6.25e-08,726942.643,2.220446049e-16,2.220446049e-16
27847,0.086875,0.015,0.000125,6.25e-08,726942.643,2.220446049e-16,2.220446049e-16
27848,0.087125,0.015,0.000125,6.25e-08,726942.643,2.220446049e-16,2.220446049e-16
27849,0.087375,0.015,0.000125,6.25e-08,726942.643,2.220446049e-16,2.220446049e-16
27850,0.087625,0.015,0.000125,6.25e-08,726942.643,2.220446049e-16,2.220446049e-16
27851,0.087875,0.015,0.000125,6.25e-08,726942.643,2.220446049e-16,2.220446049e-16
27852,0.088125,0.015,0.000125,6.25e-08,726942.643,2.220446049e-16,2.220446049e-16
27853,0.088375,0.015,0.000125,6.25e-08,726942.643,2.220446049e-16,2.220446049e-16
27854,0.088625,0.015,0.000125,6.25e-08,726942.643,2.220446049e-16,2.220446049e-16
27855,0.088875,0.015,0.000125,6.25e-08,726942.643,2.220446049e-16,2.220446049e-16
27856,0.089125,0.015,0.000125,6.25e-08,726942.643,2.220446049e-16,2.220446049e-16
27857,0.089375,0.015,0.000125,6.25e-08,726942.643,2.220446049e-16,2.220446049e-16
27858,0.089625,0.015,0.000125,6.25e-08,726942.643,2.220446049e-16,2.220446049e-16
27859,0.089875,0.015,0.000125,6.25e-08,726942.643,2.220446049e-16,2.220446049e-16
27860,0.090125,0.015,0.000125,6.25e-08,726942.643,2.220446049e-16,2.220446049e-16
27861,0.090375,0.015,0.000125,6.25e-08,726942.643,2.220446049e-16,2.220446049e-16
27862,0.090625,0.015,0.000125,6.25e-08,726942.643,2.220446049e-16,2.220446049e-16
27863,0.090875,0.015,0.000125,6.25e-08,726942.643,2.220446049e-16,2.220446049e-16
27864,0.091125,0.015,0.000125,6.25e-08,726942.643,2.220446049e-16,2.220446049e-16
27865,0.091375,0.015,0.000125,6.25e-08,726942.643,2.220446049e-16,2.220446049e-16
27866,0.091625,0.015,0.000125,6.25e-08,726942.643,2.220446049e-16,2.220446049e-16
27867,0.091875,0.015,0.000125,6.25e-08,726942.643,2.220446049e-16,2.220446049e-16
27868,0.092125,0.015,0.000125,6.25e-08,726942.643,2.220446049e-16,2.220446049e-16
27869,0.092375,0.015,0.000125,6.25e-08,726942.643,2.220446049e-16,2.220446049e-16
27870,0.092625,0.015,0.000125,6.25e-08,726942.643,2.220446049e-16,2.220446049e-16
27871,0.092875,0.015,0.000125,6.25e-08,726942.643,2.220446049e-16,2.220446049e-16
27872,0.093125,0.015,0.000125,6.25e-08,726942.643,2.220446049e-16,2.220446049e-16
27873,0.093375,0.015,0.000125,6.25e-08,726942.643,2.220446049e-16,2.220446049e-16
27874,0.093625,0.015,0.000125,6.25e-08,726942.643,2.220446049e-16,2.220446049e-16
27875,0.093875,0.015,0.000125,6.25e-08,726942.643,2.220446049e-16,2.220446049e-16
27876,0.094125,0.015,0.000125,6.25e-08,726942.643,2.220446049e-16,2.220446049e-16
27877,0.094375,0.015,0.000125,6.25e-08,726942.643,2.220446049e-16,2.220446049e-16
27878,0.094625,0.015,0.000125,6.25e-08,726942.643,2.220446049e-16,2.220446049e-16
27879,0.094875,0.015,0.000125,6.25e-08,726942.643,2.220446049e-16,2.220446049e-16
27880,0.095125,0.015,0.000125,6.25e-08,726942.643,2.220446049e-16,2.220446049e-16
27881,0.095375,0.015,0.000125,6.25e-08,726942.643,2.220446049e-16,2.220446049e-16
27882,0.095625,0.015,0.000125,6.25e-08,726942.643,2.220446049e-16,2.220446049e-16
27883,0.095875,0.015,0.000125,6.25e-08,726942.643,2.220446049e-16,2.220446049e-16
27884,0.096125,0.015,0.000125,6.25e-08,726942.643,2.220446049e-16,2.220446049e-16
27885,0.096375,0.015,0.000125,6.25e-08,726942.643,2.220446049e-16,2.220446049e-16
27886,0.096625,0.015,0.000125,6.25e-08,726942.643,2.220446049e-16,2.220446049e-16
27887,0.096875,0.015,0.000125,6.25e-08,726942.643,2.220446049e-16,2.220446049e-16
27888,0.097125,0.015,0.000125,6.25e-08,726942.643,2.220446049e-16,2.220446049e-16
27889,0.097375,0.015,0.000125,6.25e-08,726942.643,2.220446049e-16,2.220446049e-16
27890,0.097625,0.015,0.000125,6.25e-08,726942.643,2.220446049e-16,2.220446049e-16
27891,0.097875,0.015,0.000125,6.25e-08,726942.643,2.220446049e-16,2.220446049e-16
27892,0.098125,0.015,0.000125,6.25e-08,726942.643,2.220446049e-16,2.220446049e-16
27893,0.098375,0.015,0.000125,6.25e-08,726942.643,2.220446049e-16,2.220446049e-16
27894,0.098625,0.015,0.000125,6.25e-08,726942.643,2.220446049e-16,2.220446049e-16
27895,0.098875,0.015,0.000125,6.25e-08,726942.643,2.220446049e-16,2.220446049e-16
27896,0.099125,0.015,0.000125,6.25e-08,726942.643,2.220446049e-16,2.220446049e-16
27897,0.099375,0.015,0.000125,6.25e-08,726942.643,2.220446049e-16,2.220446049e-16
27898,0.099625,0.015,0.000125,6.25e-08,726942.643,2.220446049e-16,2.220446049e-16
27899,0.099875,0.015,0.000125,6.25e-08,726942.643,2.220446049e-16,2.220446049e-16
27900,0.100125,0.015,0.000125,6.25e-08,726942.643,2.220446049e-16,2.220446049e-16
27901,0.100375,0.015,0.000125,6.25e-08,726942.643,2.220446049e-16,2.220446049e-16
27902,0.100625,0.015,0.000125,6.25e-08,726942.643,2.220446049e-16,2.220446049e-16
27903,0.100875,0.015,0.000125,6.25e-08,726942.643,2.220446049e-16,2.220446049e-16
27904,0.101125,0.015,0.000125,6.25e-08,726942.643,2.220446049e-16,2.220446049e-16
27905,0.101375,0.015,0.000125,6.25e-08,726942.643,2.220446049e-16,2.220446049e-16
27906,0.101625,0.015,0.000125,6.25e-08,726942.643,2.220446049e-16,2.220446049e-16
27907,0.101875,0.015,0.000125,6.25e-08,726942.643,2.220446049e-16,2.220446049e-16
27908,0.102125,0.015,0.000125,6.25e-08,726942.643,2.220446049e-16,2.220446049e-16
27909,0.102375,0.015,0.000125,6.25e-08,726942.643,2.220446049e-16,2.220446049e-16
27910,0.102625,0.015,0.000125,6.25e-08,726942.643,2.220446049e-16,2.220446049e-16
27911,0.102875,0.015,0.000125,6.25e-08,726942.643,2.220446049e-16,2.220446049e-16
27912,0.103125,0.015,0.000125,6.25e-08,726942.643,2.220446049e-16,2.220446049e-16
27913,0.103375,0.015,0.000125,6.25e-08,726942.643,2.220446049e-16,2.220446049e-16
27914,0.103625,0.015,0.000125,6.25e-08,726942.643,2.220446049e-16,2.220446049e-16
27915,0.103875,0.015,0.000125,6.25e-08,726942.643,2.220446049e-16,2.220446049e-16
27916,0.104125,0.015,0.000125,6.25e-08,726942.643,2.220446049e-16,2.220446049e-16
27917,0.104375,0.015,0.000125,6.25e-08,726942.643,2.220446049e-16,2.220446049e-16
27918,0.104625,0.015,0.000125,6.25e-08,726942.643,2.220446049e-16,2.220446049e-16
27919,0.104875,0.015,0.000125,6.25e-08,726942.643,2.220446049e-16,2.220446049e-16
27920,0.105125,0.015,0.000125,6.25e-08,726942.643,2.220446049e-16,2.220446049e-16
27921,0.105375,0.015,0.000125,6.25e-08,726942.643,2.220446049e-16,2.220446049e-16
27922,0.105625,0.015,0.000125,6.25e-08,726942.643,2.220446049e-16,2.220446049e-16
27923,0.105875,0.015,0.000125,6.25e-08,726942.643,2.220446049e-16,2.220446049e-16
27924,0.106125,0.015,0.000125,6.25e-08,726942.643,2.220446049e-16,2.220446049e-16
27925,0.106375,0.015,0.000125,6.25e-08,726942.643,2.220446049e-16,2.220446049e-16
27926,0.106625,0.015,0.000125,6.25e-08,726942.643,2.220446049e-16,2.220446049e-16
27927,0.106875,0.015,0.000125,6.25e-08,726942.643,2.220446049e-16,2.220446049e-16
27928,0.107125,0.015,0.000125,6.25e-08,726942.643,2.220446049e-16,2.220446049e-16
27929,0.107375,0.015,0.000125,6.25e-08,726942.643,2.220446049e-16,2.220446049e-16
27930,0.107625,0.015,0.000125,6.25e-08,726942.643,2.220446049e-16,2.220446049e-16
27931,0.107875,0.015,0.000125,6.25e-08,726942.643,2.220446049e-16,2.220446049e-16
27932,0.108125,0.015,0.000125,6.25e-08,726942.643,2.220446049e-16,2.220446049e-16
27933,0.108375,0.015,0.000125,6.25e-08,726942.643,2.220446049e-16,2.220446049e-16
27934,0.108625,0.015,0.000125,6.25e-08,726942.643,2.220446049e-16,2.220446049e-16
27935,0.108875,0.015,0.000125,6.25e-08,726942.643,2.220446049e-16,2.220446049e-16
27936,0.109125,0.015,0.000125,6.25e-08,726942.643,2.220446049e-16,2.220446049e-16
27937,0.109375,0.015,0.000125,6.25e-08,726942.643,2.220446049e-16,2.220446049e-16
27938,0.109625,0.015,0.000125,6.25e-08,726942.643,2.220446049e-16,2.220446049e-16
27939,0.109875,0.015,0.000125,6.25e-08,726942.643,2.220446049e-16,2.220446049e-16
27940,0.110125,0.015,0.000125,6.25e-08,726942.643,2.220446049e-16,2.220446049e-16
27941,0.110375,0.015,0.000125,6.25e-08,726942.643,2.220446049e-16,2.220446049e-16
27942,0.110625,0.015,0.000125,6.25e-08,726942.643,2.220446049e-16,2.220446049e-16
27943,0.110875,0.015,0.000125,6.25e-08,726942.643,2.220446049e-16,2.220446049e-16
27944,0.111125,0.015,0.000125,6.25e-08,726942.643,2.220446049e-16,2.220446049e-16