cellI,x,y,z,S,omega,k,nut
0,0.000125,0,0.000125,6.25e-08,99678.53782,7.12568397,9.420189198e-06
1,0.000375,0,0.000125,6.25e-08,112324.0388,8.686903391,1.055896635e-05
2,0.000625,0,0.000125,6.25e-08,124093.0269,10.234617,1.160603558e-05
3,0.000875,0,0.000125,6.25e-08,135095.737,11.75810571,1.257507457e-05
4,0.001125,0,0.000125,6.25e-08,145408.1257,13.24865675,1.347552206e-05
5,0.001375,0,0.000125,6.25e-08,155086.417,14.6992666,1.431433118e-05
6,0.001625,0,0.000125,6.25e-08,164174.549,16.10435867,1.509688069e-05
7,0.001875,0,0.000125,6.25e-08,172708.7707,17.45961233,1.5827529e-05
8,0.002125,0,0.000125,6.25e-08,180720.3967,18.76181507,1.650994972e-05
9,0.002375,0,0.000125,6.25e-08,188237.4107,20.00871396,1.714733421e-05
10,0.002625,0,0.000125,6.25e-08,195285.4439,21.19887847,1.774252027e-05
11,0.002875,0,0.000125,6.25e-08,201888.3947,22.33157823,1.829807738e-05
12,0.003125,0,0.000125,6.25e-08,208068.8339,23.40667601,1.881636506e-05
13,0.003375,0,0.000125,6.25e-08,213848.271,24.42453373,1.929957372e-05
14,0.003625,0,0.000125,6.25e-08,219247.317,25.38592798,1.974975261e-05
15,0.003875,0,0.000125,6.25e-08,224285.7845,26.29197503,2.016882943e-05
16,0.004125,0,0.000125,6.25e-08,228982.75,27.14406543,2.055862466e-05
17,0.004375,0,0.000125,6.25e-08,233356.5929,27.94380714,2.092086221e-05
18,0.004625,0,0.000125,6.25e-08,237425.0154,28.69297562,2.125717713e-05
19,0.004875,0,0.000125,6.25e-08,241205.0503,29.39347008,2.156912128e-05
20,0.005125,0,0.000125,6.25e-08,244713.0648,30.04727615,2.185816794e-05
21,0.005375,0,0.000125,6.25e-08,247964.7656,30.65643446,2.212571579e-05
22,0.005625,0,0.000125,6.25e-08,250975.1996,31.2230134,2.237309197e-05
23,0.005875,0,0.000125,6.25e-08,253758.7549,31.74908589,2.260155469e-05
24,0.006125,0,0.000125,6.25e-08,256329.1647,32.23671041,2.281229581e-05
25,0.006375,0,0.000125,6.25e-08,258699.5172,32.68791593,2.300644351e-05
26,0.006625,0,0.000125,6.25e-08,260882.2663,33.10468956,2.31850647e-05
27,0.006875,0,0.000125,6.25e-08,262889.2429,33.48896653,2.334916744e-05
28,0.007125,0,0.000125,6.25e-08,264731.6685,33.84262223,2.349970311e-05
29,0.007375,0,0.000125,6.25e-08,266420.1702,34.16746639,2.363756874e-05
30,0.007625,0,0.000125,6.25e-08,267964.7998,34.46523903,2.37636094e-05
31,0.007875,0,0.000125,6.25e-08,269375.0531,34.73760778,2.387862052e-05
32,0.008125,0,0.000125,6.25e-08,270659.889,34.98616612,2.398335014e-05
33,0.008375,0,0.000125,6.25e-08,271827.7488,35.21243235,2.407850098e-05
34,0.008625,0,0.000125,6.25e-08,272886.576,35.41784954,2.416473256e-05
35,0.008875,0,0.000125,6.25e-08,273843.838,35.60378625,2.424266336e-05
36,0.009125,0,0.000125,6.25e-08,274706.5484,35.77153804,2.431287302e-05
37,0.009375,0,0.000125,6.25e-08,275481.2889,35.9223293,2.43759044e-05
38,0.009625,0,0.000125,6.25e-08,276174.2297,36.05731502,2.443226548e-05
39,0.009875,0,0.000125,6.25e-08,276791.1494,36.17758305,2.448243124e-05
40,0.010125,0,0.000125,6.25e-08,277337.4568,36.28415672,2.452684558e-05
41,0.010375,0,0.000125,6.25e-08,277818.2112,36.37799763,2.45659232e-05
42,0.010625,0,0.000125,6.25e-08,278238.1428,36.46000839,2.460005127e-05
43,0.010875,0,0.000125,6.25e-08,278601.6702,36.53103535,2.462959114e-05
44,0.011125,0,0.000125,6.25e-08,278912.9194,36.59187135,2.465487984e-05
45,0.011375,0,0.000125,6.25e-08,279175.7409,36.64325847,2.467623159e-05
46,0.011625,0,0.000125,6.25e-08,279393.7259,36.68589068,2.469393926e-05
47,0.011875,0,0.000125,6.25e-08,279570.2228,36.72041658,2.47082757e-05
48,0.012125,0,0.000125,6.25e-08,279708.3522,36.74744189,2.471949498e-05
49,0.012375,0,0.000125,6.25e-08,279811.0207,36.76753193,2.472783366e-05
50,0.012625,0,0.000125,6.25e-08,279880.9355,36.78121408,2.473351193e-05
51,0.012875,0,0.000125,6.25e-08,279920.617,36.78898014,2.473673468e-05
52,0.013125,0,0.000125,6.25e-08,279932.4122,36.79128864,2.473769262e-05
53,0.013375,0,0.000125,6.25e-08,279918.5056,36.78856691,2.47365632e-05
54,0.013625,0,0.000125,6.25e-08,279880.9302,36.78121304,2.473351149e-05
55,0.013875,0,0.000125,6.25e-08,279821.5774,36.76959778,2.472869105e-05
56,0.014125,0,0.000125,6.25e-08,279742.207,36.7540663,2.472224469e-05
57,0.014375,0,0.000125,6.25e-08,279644.456,36.73493994,2.471430521e-05
58,0.014625,0,0.000125,6.25e-08,279529.847,36.71251775,2.470499614e-05
59,0.014875,0,0.000125,6.25e-08,279399.7966,36.68707811,2.469443239e-05
60,0.015125,0,0.000125,6.25e-08,279255.6236,36.65888024,2.468272091e-05
61,0.015375,0,0.000125,6.25e-08,279098.5566,36.62816573,2.466996131e-05
62,0.015625,0,0.000125,6.25e-08,278929.7407,36.5951598,2.465624646e-05
63,0.015875,0,0.000125,6.25e-08,278750.2448,36.56007269,2.464166304e-05
64,0.016125,0,0.000125,6.25e-08,278561.0673,36.5231008,2.462629199e-05
65,0.016375,0,0.000125,6.25e-08,278363.1429,36.48442794,2.46102091e-05
66,0.016625,0,0.000125,6.25e-08,278157.3478,36.44422643,2.459348542e-05
67,0.016875,0,0.000125,6.25e-08,277944.5057,36.40265825,2.457618777e-05
68,0.017125,0,0.000125,6.25e-08,277725.3938,36.3598761,2.455837916e-05
69,0.017375,0,0.000125,6.25e-08,277500.7475,36.31602448,2.454011927e-05
70,0.017625,0,0.000125,6.25e-08,277271.2665,36.27124076,2.452146484e-05
71,0.017875,0,0.000125,6.25e-08,277037.6197,36.2256562,2.450247018e-05
72,0.018125,0,0.000125,6.25e-08,276800.451,36.17939705,2.448318753e-05
73,0.018375,0,0.000125,6.25e-08,276560.3852,36.13258569,2.446366763e-05
74,0.018625,0,0.000125,6.25e-08,276318.0363,36.08534233,2.444396035e-05
75,0.018875,0,0.000125,6.25e-08,276074.0159,36.03778653,2.442411538e-05
76,0.019125,0,0.000125,6.25e-08,275828.9391,35.99003838,2.44041827e-05
77,0.019375,0,0.000125,6.25e-08,275583.4315,35.94221996,2.438421319e-05
78,0.019625,0,0.000125,6.25e-08,275338.1398,35.89445724,2.436425943e-05
79,0.019875,0,0.000125,6.25e-08,275093.7434,35.84688246,2.434437671e-05
80,0.020125,0,0.000125,6.25e-08,274850.9675,35.7996366,2.432462405e-05
81,0.020375,0,0.000125,6.25e-08,274610.5991,35.75287252,2.430506553e-05
82,0.020625,0,0.000125,6.25e-08,274373.5055,35.7067585,2.428577178e-05
83,0.020875,0,0.000125,6.25e-08,274140.6564,35.66148255,2.426682177e-05
84,0.021125,0,0.000125,6.25e-08,273913.1548,35.6172584,2.424830539e-05
85,0.021375,0,0.000125,6.25e-08,273692.2789,35.57433361,2.423032678e-05
86,0.021625,0,0.000125,6.25e-08,273479.5256,35.53299799,2.421300794e-05
87,0.021875,0,0.000125,6.25e-08,273276.6696,35.49359501,2.419649349e-05
88,0.022125,0,0.000125,6.25e-08,273085.7352,35.45651639,2.418094845e-05
89,0.022375,0,0.000125,6.25e-08,272900.3571,35.42052484,2.416585464e-05
90,0.022625,0,0.000125,6.25e-08,272709.2077,35.38342114,2.415028985e-05
91,0.022875,0,0.000125,6.25e-08,272511.0627,35.34496845,2.413415425e-05
92,0.023125,0,0.000125,6.25e-08,272306.4119,35.30526283,2.411748762e-05
93,0.023375,0,0.000125,6.25e-08,272093.1522,35.2638973,2.410011853e-05
94,0.023625,0,0.000125,6.25e-08,271866.8325,35.22001013,2.408168422e-05
95,0.023875,0,0.000125,6.25e-08,271618.6756,35.17190212,2.40614694e-05
96,0.024125,0,0.000125,6.25e-08,271329.8703,35.11593209,2.403794097e-05
97,0.024375,0,0.000125,6.25e-08,270969.5278,35.0461257,2.400858091e-05
98,0.024625,0,0.000125,6.25e-08,270427.8704,34.94125201,2.396444006e-05
99,0.024875,0,0.000125,6.25e-08,269669.549,34.79454503,2.390262728e-05
36000,0.125125,0,0.000125,6.25e-08,354175.5014,51.81686244,3.069376396e-05
36001,0.125375,0,0.000125,6.25e-08,344818.3292,49.87863748,2.995055546e-05
36002,0.125625,0,0.000125,6.25e-08,333294.8518,47.50618537,2.903251314e-05
36003,0.125875,0,0.000125,6.25e-08,321135.3878,45.022395,2.806036221e-05
36004,0.126125,0,0.000125,6.25e-08,309460.2865,42.65888796,2.712346659e-05
36005,0.126375,0,0.000125,6.25e-08,298458.5573,40.45303637,2.623735722e-05
36006,0.126625,0,0.000125,6.25e-08,288234.2698,38.42350017,2.541091374e-05
36007,0.126875,0,0.000125,6.25e-08,278896.4766,36.58865693,2.465353755e-05
36008,0.127125,0,0.000125,6.25e-08,270513.9251,34.95790898,2.397144999e-05
36009,0.127375,0,0.000125,6.25e-08,263079.3637,33.52542142,2.336470239e-05
36010,0.127625,0,0.000125,6.25e-08,256551.9554,32.27905724,2.283054847e-05
36011,0.127875,0,0.000125,6.25e-08,250987.826,31.22539497,2.237412672e-05
36012,0.128125,0,0.000125,6.25e-08,246440.9709,30.37060437,2.200038253e-05
36013,0.128375,0,0.000125,6.25e-08,242805.7889,29.69136877,2.170106796e-05
36014,0.128625,0,0.000125,6.25e-08,239964.9954,29.16320681,2.146684176e-05
36015,0.128875,0,0.000125,6.25e-08,237794.7855,28.76131286,2.128771384e-05
36016,0.129125,0,0.000125,6.25e-08,236196.6779,28.46625992,2.115569943e-05
36017,0.129375,0,0.000125,6.25e-08,235070.2757,28.25875759,2.106259583e-05
36018,0.129625,0,0.000125,6.25e-08,234327.0502,28.12205338,2.100113884e-05
36019,0.129875,0,0.000125,6.25e-08,233881.8744,28.04025112,2.096431787e-05
36020,0.130125,0,0.000125,6.25e-08,233672.6607,28.00182846,2.094701114e-05
36021,0.130375,0,0.000125,6.25e-08,233646.5098,27.99702671,2.094484782e-05
36022,0.130625,0,0.000125,6.25e-08,233761.2749,28.01810105,2.095434195e-05
36023,0.130875,0,0.000125,6.25e-08,233981.2731,28.05851066,2.097254024e-05
36024,0.131125,0,0.000125,6.25e-08,234277.0314,28.11285928,2.099700261e-05
36025,0.131375,0,0.000125,6.25e-08,234623.6167,28.17658182,2.102566484e-05
36026,0.131625,0,0.000125,6.25e-08,235001.747,28.24614582,2.105693081e-05
36027,0.131875,0,0.000125,6.25e-08,235396.3064,28.31877853,2.108954972e-05
36028,0.132125,0,0.000125,6.25e-08,235796.4841,28.39249357,2.112262732e-05
36029,0.132375,0,0.000125,6.25e-08,236193.2418,28.46562635,2.115541653e-05
36030,0.132625,0,0.000125,6.25e-08,236578.8944,28.53675758,2.118728254e-05
36031,0.132875,0,0.000125,6.25e-08,236948.3025,28.60493447,2.121780126e-05
36032,0.133125,0,0.000125,6.25e-08,237298.0255,28.669516,2.124668918e-05
36033,0.133375,0,0.000125,6.25e-08,237625.7214,28.73006305,2.127375363e-05
36034,0.133625,0,0.000125,6.25e-08,237929.873,28.78628855,2.12988701e-05
36035,0.133875,0,0.000125,6.25e-08,238209.6581,28.83803397,2.13219715e-05
36036,0.134125,0,0.000125,6.25e-08,238464.8312,28.88524772,2.134303828e-05
36037,0.134375,0,0.000125,6.25e-08,238695.5769,28.92795838,2.136208637e-05
36038,0.134625,0,0.000125,6.25e-08,238902.5711,28.96628609,2.137917216e-05
36039,0.134875,0,0.000125,6.25e-08,239086.0463,29.00026953,2.139431535e-05
36040,0.135125,0,0.000125,6.25e-08,239246.8338,29.03005889,2.140758501e-05
36041,0.135375,0,0.000125,6.25e-08,239386.0198,29.05585227,2.141907118e-05
36042,0.135625,0,0.000125,6.25e-08,239504.8354,29.07787521,2.142887577e-05
36043,0.135875,0,0.000125,6.25e-08,239604.5615,29.09636303,2.143710469e-05
36044,0.136125,0,0.000125,6.25e-08,239686.4677,29.11154949,2.144386295e-05
36045,0.136375,0,0.000125,6.25e-08,239751.8264,29.12366925,2.144925566e-05
36046,0.136625,0,0.000125,6.25e-08,239801.7813,29.13293345,2.14533773e-05
36047,0.136875,0,0.000125,6.25e-08,239837.3783,29.13953539,2.145631425e-05
36048,0.137125,0,0.000125,6.25e-08,239860.1906,29.14376644,2.145819636e-05
36049,0.137375,0,0.000125,6.25e-08,239871.2634,29.1458202,2.14591099e-05
36050,0.137625,0,0.000125,6.25e-08,239871.6151,29.14588545,2.14591389e-05
36051,0.137875,0,0.000125,6.25e-08,239862.2218,29.14414319,2.145836389e-05
36052,0.138125,0,0.000125,6.25e-08,239844.0148,29.14076627,2.14568617e-05
36053,0.138375,0,0.000125,6.25e-08,239817.8939,29.1359217,2.145470656e-05
36054,0.138625,0,0.000125,6.25e-08,239784.6697,29.12975998,2.145196531e-05
36055,0.138875,0,0.000125,6.25e-08,239745.0443,29.12241155,2.144869588e-05
36056,0.139125,0,0.000125,6.25e-08,239699.7488,29.11401217,2.144495856e-05
36057,0.139375,0,0.000125,6.25e-08,239649.4763,29.10469056,2.144081049e-05
36058,0.139625,0,0.000125,6.25e-08,239594.8676,29.09456579,2.143630454e-05
36059,0.139875,0,0.000125,6.25e-08,239536.5157,29.08374798,2.143148961e-05
36060,0.140125,0,0.000125,6.25e-08,239474.9646,29.07233815,2.142641056e-05
36061,0.140375,0,0.000125,6.25e-08,239410.6918,29.06042499,2.14211068e-05
36062,0.140625,0,0.000125,6.25e-08,239344.1573,29.04809389,2.141561623e-05
36063,0.140875,0,0.000125,6.25e-08,239275.7923,29.03542489,2.140997445e-05
36064,0.141125,0,0.000125,6.25e-08,239205.9883,29.02249067,2.140421375e-05
36065,0.141375,0,0.000125,6.25e-08,239135.1028,29.0093575,2.139836362e-05
36066,0.141625,0,0.000125,6.25e-08,239063.4613,28.99608578,2.139245092e-05
36067,0.141875,0,0.000125,6.25e-08,238991.3638,28.98273112,2.13865004e-05
36068,0.142125,0,0.000125,6.25e-08,238919.0815,28.96934375,2.138053443e-05
36069,0.142375,0,0.000125,6.25e-08,238846.8618,28.95596953,2.137457346e-05
36070,0.142625,0,0.000125,6.25e-08,238774.9116,28.94264675,2.136863454e-05
36071,0.142875,0,0.000125,6.25e-08,238703.4241,28.92941117,2.136273364e-05
36072,0.143125,0,0.000125,6.25e-08,238632.5744,28.91629517,2.13568852e-05
36073,0.143375,0,0.000125,6.25e-08,238562.5185,28.90332756,2.135110211e-05
36074,0.143625,0,0.000125,6.25e-08,238493.3861,28.89053234,2.134539509e-05
36075,0.143875,0,0.000125,6.25e-08,238425.291,28.87793048,2.133977353e-05
36076,0.144125,0,0.000125,6.25e-08,238358.3378,28.86554129,2.133424608e-05
36077,0.144375,0,0.000125,6.25e-08,238292.6231,28.85338256,2.132882072e-05
36078,0.144625,0,0.000125,6.25e-08,238228.228,28.84146924,2.132350416e-05
36079,0.144875,0,0.000125,6.25e-08,238165.2222,28.82981412,2.131830215e-05
36080,0.145125,0,0.000125,6.25e-08,238103.6632,28.8184278,2.131321947e-05
36081,0.145375,0,0.000125,6.25e-08,238043.6002,28.80731925,2.130826017e-05
36082,0.145625,0,0.000125,6.25e-08,237985.0716,28.79649554,2.130342745e-05
36083,0.145875,0,0.000125,6.25e-08,237928.1098,28.78596253,2.129872397e-05
36084,0.146125,0,0.000125,6.25e-08,237872.7375,28.77572438,2.129415164e-05
36085,0.146375,0,0.000125,6.25e-08,237818.9736,28.76578449,2.128971201e-05
36086,0.146625,0,0.000125,6.25e-08,237766.8285,28.75614471,2.128540596e-05
36087,0.146875,0,0.000125,6.25e-08,237716.3118,28.74680672,2.128123428e-05
36088,0.147125,0,0.000125,6.25e-08,237667.4241,28.73777059,2.127719704e-05
36089,0.147375,0,0.000125,6.25e-08,237620.1678,28.72903667,2.127329445e-05
36090,0.147625,0,0.000125,6.25e-08,237574.5349,28.72060341,2.126952584e-05
36091,0.147875,0,0.000125,6.25e-08,237530.5219,28.71247012,2.126589094e-05
36092,0.148125,0,0.000125,6.25e-08,237488.1079,28.70463287,2.126238804e-05
36093,0.148375,0,0.000125,6.25e-08,237447.2958,28.6970921,2.125901737e-05
36094,0.148625,0,0.000125,6.25e-08,237407.9983,28.68983165,2.125577173e-05
36095,0.148875,0,0.000125,6.25e-08,237370.2891,28.68286509,2.125265723e-05
36096,0.149125,0,0.000125,6.25e-08,237333.7909,28.67612267,2.12496427e-05
36097,0.149375,0,0.000125,6.25e-08,237298.9184,28.66968093,2.124676239e-05
36098,0.149625,0,0.000125,6.25e-08,237264.5081,28.66332493,2.124392022e-05
36099,0.149875,0,0.000125,6.25e-08,237234.1506,28.65771782,2.124141275e-05
3900,0.000125,0.01,0.000125,6.25e-08,99678.53782,7.12568397,9.420189198e-06
3901,0.000375,0.01,0.000125,6.25e-08,112324.0388,8.686903391,1.055896635e-05
3902,0.000625,0.01,0.000125,6.25e-08,124093.0269,10.234617,1.160603558e-05
3903,0.000875,0.01,0.000125,6.25e-08,135095.737,11.75810571,1.257507457e-05
3904,0.001125,0.01,0.000125,6.25e-08,145408.1257,13.24865675,1.347552206e-05
3905,0.001375,0.01,0.000125,6.25e-08,155086.417,14.6992666,1.431433119e-05
3906,0.001625,0.01,0.000125,6.25e-08,164174.549,16.10435867,1.509688069e-05
3907,0.001875,0.01,0.000125,6.25e-08,172708.7707,17.45961233,1.5827529e-05
3908,0.002125,0.01,0.000125,6.25e-08,180720.3968,18.76181508,1.650994972e-05
3909,0.002375,0.01,0.000125,6.25e-08,188237.4108,20.00871397,1.714733421e-05
3910,0.002625,0.01,0.000125,6.25e-08,195285.444,21.19887848,1.774252028e-05
3911,0.002875,0.01,0.000125,6.25e-08,201888.3948,22.33157825,1.829807739e-05
3912,0.003125,0.01,0.000125,6.25e-08,208068.834,23.40667603,1.881636507e-05
3913,0.003375,0.01,0.000125,6.25e-08,213848.2711,24.42453376,1.929957374e-05
3914,0.003625,0.01,0.000125,6.25e-08,219247.3172,25.38592801,1.974975263e-05
3915,0.003875,0.01,0.000125,6.25e-08,224285.7848,26.29197507,2.016882945e-05
3916,0.004125,0.01,0.000125,6.25e-08,228982.7503,27.14406548,2.055862469e-05
3917,0.004375,0.01,0.000125,6.25e-08,233356.5932,27.9438072,2.092086224e-05
3918,0.004625,0.01,0.000125,6.25e-08,237425.0158,28.69297569,2.125717716e-05
3919,0.004875,0.01,0.000125,6.25e-08,241205.0508,29.39347017,2.156912132e-05
3920,0.005125,0.01,0.000125,6.25e-08,244713.0654,30.04727626,2.185816799e-05
3921,0.005375,0.01,0.000125,6.25e-08,247964.7662,30.65643458,2.212571585e-05
3922,0.005625,0.01,0.000125,6.25e-08,250975.2004,31.22301354,2.237309203e-05
3923,0.005875,0.01,0.000125,6.25e-08,253758.7558,31.74908605,2.260155476e-05
3924,0.006125,0.01,0.000125,6.25e-08,256329.1657,32.2367106,2.28122959e-05
3925,0.006375,0.01,0.000125,6.25e-08,258699.5183,32.68791615,2.30064436e-05
3926,0.006625,0.01,0.000125,6.25e-08,260882.2676,33.10468981,2.318506481e-05
3927,0.006875,0.01,0.000125,6.25e-08,262889.2444,33.48896681,2.334916756e-05
3928,0.007125,0.01,0.000125,6.25e-08,264731.6701,33.84262254,2.349970324e-05
3929,0.007375,0.01,0.000125,6.25e-08,266420.1721,34.16746675,2.363756889e-05
3930,0.007625,0.01,0.000125,6.25e-08,267964.8019,34.46523944,2.376360957e-05
3931,0.007875,0.01,0.000125,6.25e-08,269375.0554,34.73760824,2.387862071e-05
3932,0.008125,0.01,0.000125,6.25e-08,270659.8916,34.98616662,2.398335035e-05
3933,0.008375,0.01,0.000125,6.25e-08,271827.7516,35.21243291,2.407850121e-05
3934,0.008625,0.01,0.000125,6.25e-08,272886.5792,35.41785017,2.416473282e-05
3935,0.008875,0.01,0.000125,6.25e-08,273843.8416,35.60378694,2.424266365e-05
3936,0.009125,0.01,0.000125,6.25e-08,274706.5523,35.77153881,2.431287335e-05
3937,0.009375,0.01,0.000125,6.25e-08,275481.2933,35.92233014,2.437590476e-05
3938,0.009625,0.01,0.000125,6.25e-08,276174.2345,36.05731595,2.443226587e-05
3939,0.009875,0.01,0.000125,6.25e-08,276791.1547,36.17758408,2.448243167e-05
3940,0.010125,0.01,0.000125,6.25e-08,277337.4626,36.28415786,2.452684605e-05
3941,0.010375,0.01,0.000125,6.25e-08,277818.2176,36.37799888,2.456592372e-05
3942,0.010625,0.01,0.000125,6.25e-08,278238.1498,36.46000976,2.460005184e-05
3943,0.010875,0.01,0.000125,6.25e-08,278601.6779,36.53103685,2.462959177e-05
3944,0.011125,0.01,0.000125,6.25e-08,278912.9279,36.591873,2.465488052e-05
3945,0.011375,0.01,0.000125,6.25e-08,279175.7501,36.64326027,2.467623234e-05
3946,0.011625,0.01,0.000125,6.25e-08,279393.736,36.68589266,2.469394009e-05
3947,0.011875,0.01,0.000125,6.25e-08,279570.2339,36.72041874,2.470827659e-05
3948,0.012125,0.01,0.000125,6.25e-08,279708.3643,36.74744425,2.471949596e-05
3949,0.012375,0.01,0.000125,6.25e-08,279811.0339,36.76753451,2.472783474e-05
3950,0.012625,0.01,0.000125,6.25e-08,279880.9499,36.7812169,2.47335131e-05
3951,0.012875,0.01,0.000125,6.25e-08,279920.6327,36.78898322,2.473673595e-05
3952,0.013125,0.01,0.000125,6.25e-08,279932.4294,36.79129199,2.473769401e-05
3953,0.013375,0.01,0.000125,6.25e-08,279918.5243,36.78857056,2.473656471e-05
3954,0.013625,0.01,0.000125,6.25e-08,279880.9505,36.78121702,2.473351315e-05
3955,0.013875,0.01,0.000125,6.25e-08,279821.5995,36.76960211,2.472869285e-05
3956,0.014125,0.01,0.000125,6.25e-08,279742.2311,36.75407102,2.472224664e-05
3957,0.014375,0.01,0.000125,6.25e-08,279644.4822,36.73494506,2.471430734e-05
3958,0.014625,0.01,0.000125,6.25e-08,279529.8755,36.71252332,2.470499846e-05
3959,0.014875,0.01,0.000125,6.25e-08,279399.8276,36.68708416,2.469443491e-05
3960,0.015125,0.01,0.000125,6.25e-08,279255.6573,36.65888682,2.468272364e-05
3961,0.015375,0.01,0.000125,6.25e-08,279098.5931,36.62817287,2.466996428e-05
3962,0.015625,0.01,0.000125,6.25e-08,278929.7804,36.59516757,2.465624969e-05
3963,0.015875,0.01,0.000125,6.25e-08,278750.2879,36.56008112,2.464166654e-05
3964,0.016125,0.01,0.000125,6.25e-08,278561.1142,36.52310996,2.46262958e-05
3965,0.016375,0.01,0.000125,6.25e-08,278363.1938,36.48443788,2.461021323e-05
3966,0.016625,0.01,0.000125,6.25e-08,278157.403,36.44423723,2.459348991e-05
3967,0.016875,0.01,0.000125,6.25e-08,277944.5657,36.40266997,2.457619265e-05
3968,0.017125,0.01,0.000125,6.25e-08,277725.4589,36.35988881,2.455838446e-05
3969,0.017375,0.01,0.000125,6.25e-08,277500.8182,36.31603828,2.454012501e-05
3970,0.017625,0.01,0.000125,6.25e-08,277271.3432,36.27125573,2.452147108e-05
3971,0.017875,0.01,0.000125,6.25e-08,277037.703,36.22567245,2.450247695e-05
3972,0.018125,0.01,0.000125,6.25e-08,276800.5414,36.17941469,2.448319488e-05
3973,0.018375,0.01,0.000125,6.25e-08,276560.4833,36.13260482,2.446367561e-05
3974,0.018625,0.01,0.000125,6.25e-08,276318.1428,36.08536309,2.444396901e-05
3975,0.018875,0.01,0.000125,6.25e-08,276074.1316,36.03780906,2.442412479e-05
3976,0.019125,0.01,0.000125,6.25e-08,275829.0647,35.99006285,2.440419292e-05
3977,0.019375,0.01,0.000125,6.25e-08,275583.568,35.94224653,2.438422429e-05
3978,0.019625,0.01,0.000125,6.25e-08,275338.2881,35.89448612,2.43642715e-05
3979,0.019875,0.01,0.000125,6.25e-08,275093.9046,35.84691384,2.434438983e-05
3980,0.020125,0.01,0.000125,6.25e-08,274851.1429,35.79967073,2.432463833e-05
3981,0.020375,0.01,0.000125,6.25e-08,274610.79,35.75290967,2.430508107e-05
3982,0.020625,0.01,0.000125,6.25e-08,274373.7136,35.70679896,2.428578871e-05
3983,0.020875,0.01,0.000125,6.25e-08,274140.8833,35.66152666,2.426684024e-05
3984,0.021125,0.01,0.000125,6.25e-08,273913.4024,35.61730653,2.424832555e-05
3985,0.021375,0.01,0.000125,6.25e-08,273692.5496,35.57438621,2.423034882e-05
3986,0.021625,0.01,0.000125,6.25e-08,273479.8219,35.53305556,2.421303207e-05
3987,0.021875,0.01,0.000125,6.25e-08,273276.9946,35.49365814,2.419651996e-05
3988,0.022125,0.01,0.000125,6.25e-08,273086.0922,35.45658572,2.418097752e-05
3989,0.022375,0.01,0.000125,6.25e-08,272900.7141,35.42059415,2.416588371e-05
3990,0.022625,0.01,0.000125,6.25e-08,272709.5638,35.38349025,2.415031886e-05
3991,0.022875,0.01,0.000125,6.25e-08,272511.4185,35.3450375,2.413418325e-05
3992,0.023125,0.01,0.000125,6.25e-08,272306.7693,35.30533216,2.411751675e-05
3993,0.023375,0.01,0.000125,6.25e-08,272093.5092,35.26396652,2.410014763e-05
3994,0.023625,0.01,0.000125,6.25e-08,271867.1831,35.2200781,2.408171281e-05
3995,0.023875,0.01,0.000125,6.25e-08,271619.0084,35.17196663,2.406149657e-05
3996,0.024125,0.01,0.000125,6.25e-08,271330.1615,35.11598851,2.403796478e-05
3997,0.024375,0.01,0.000125,6.25e-08,270969.7363,35.04616607,2.400859803e-05
3998,0.024625,0.01,0.000125,6.25e-08,270427.8701,34.94125195,2.396444028e-05
3999,0.024875,0.01,0.000125,6.25e-08,269669.304,34.79449766,2.390260782e-05
39900,0.125125,0.01,0.000125,6.25e-08,354344.5417,51.8519663,3.070715988e-05
39901,0.125375,0.01,0.000125,6.25e-08,344968.0581,49.90957269,2.99624525e-05
39902,0.125625,0.01,0.000125,6.25e-08,333425.9727,47.53308327,2.904296697e-05
39903,0.125875,0.01,0.000125,6.25e-08,321249.142,45.04553028,2.806946527e-05
39904,0.126125,0.01,0.000125,6.25e-08,309558.3077,42.67863755,2.713133996e-05
39905,0.126375,0.01,0.000125,6.25e-08,298542.632,40.46980948,2.624413523e-05
39906,0.126625,0.01,0.000125,6.25e-08,288306.2439,38.43771413,2.541673695e-05
39907,0.126875,0.01,0.000125,6.25e-08,278958.1941,36.60072241,2.465854798e-05
39908,0.127125,0.01,0.000125,6.25e-08,270567.095,34.96820155,2.397578032e-05
39909,0.127375,0.01,0.000125,6.25e-08,263125.5277,33.53427453,2.33684733e-05
39910,0.127625,0.01,0.000125,6.25e-08,256592.4909,32.2867634,2.283386864e-05
39911,0.127875,0.01,0.000125,6.25e-08,251024.9545,31.23239836,2.237717526e-05
39912,0.128125,0.01,0.000125,6.25e-08,246476.086,30.37718388,2.200327175e-05
39913,0.128375,0.01,0.000125,6.25e-08,242839.9475,29.69773378,2.17038833e-05
39914,0.128625,0.01,0.000125,6.25e-08,239998.9711,29.16950971,2.146964584e-05
39915,0.128875,0.01,0.000125,6.25e-08,237829.0557,28.7676484,2.129054517e-05
39916,0.129125,0.01,0.000125,6.25e-08,236231.6229,28.4727035,2.11585887e-05
39917,0.129375,0.01,0.000125,6.25e-08,235106.0488,28.26534169,2.106555511e-05
39918,0.129625,0.01,0.000125,6.25e-08,234363.7002,28.12879062,2.100417168e-05
39919,0.129875,0.01,0.000125,6.25e-08,233919.2502,28.04711671,2.096741132e-05
39920,0.130125,0.01,0.000125,6.25e-08,233710.6646,28.00880698,2.095015675e-05
39921,0.130375,0.01,0.000125,6.25e-08,233684.9882,28.00409206,2.094803262e-05
39922,0.130625,0.01,0.000125,6.25e-08,233800.1004,28.02523151,2.095755518e-05
39923,0.130875,0.01,0.000125,6.25e-08,234020.2745,28.06567604,2.097576756e-05
39924,0.131125,0.01,0.000125,6.25e-08,234316.0422,28.12002991,2.100023013e-05
39925,0.131375,0.01,0.000125,6.25e-08,234662.4598,28.18372571,2.102887785e-05
39926,0.131625,0.01,0.000125,6.25e-08,235040.278,28.25323676,2.106011735e-05
39927,0.131875,0.01,0.000125,6.25e-08,235434.371,28.32578816,2.1092697e-05
39928,0.132125,0.01,0.000125,6.25e-08,235833.9953,28.39940583,2.112572819e-05
39929,0.132375,0.01,0.000125,6.25e-08,236230.0624,28.47241577,2.115845968e-05
39930,0.132625,0.01,0.000125,6.25e-08,236614.9242,28.54340535,2.119025973e-05
39931,0.132875,0.01,0.000125,6.25e-08,236983.4595,28.61142508,2.122070578e-05
39932,0.133125,0.01,0.000125,6.25e-08,237332.2486,28.67583777,2.124951604e-05
39933,0.133375,0.01,0.000125,6.25e-08,237658.9596,28.73620612,2.127649868e-05
39934,0.133625,0.01,0.000125,6.25e-08,237962.0846,28.79224481,2.130152997e-05
39935,0.133875,0.01,0.000125,6.25e-08,238240.8121,28.84379725,2.132454369e-05
39936,0.134125,0.01,0.000125,6.25e-08,238494.9064,28.8908137,2.134552109e-05
39937,0.134375,0.01,0.000125,6.25e-08,238724.5602,28.93332426,2.136447878e-05
39938,0.134625,0.01,0.000125,6.25e-08,238930.4612,28.97145129,2.13814741e-05
39939,0.134875,0.01,0.000125,6.25e-08,239112.829,29.00523107,2.13965257e-05
39940,0.135125,0.01,0.000125,6.25e-08,239272.512,29.03481705,2.140970406e-05
39941,0.135375,0.01,0.000125,6.25e-08,239410.6034,29.06040859,2.142109977e-05
39942,0.135625,0.01,0.000125,6.25e-08,239528.3405,29.08223246,2.143081525e-05
39943,0.135875,0.01,0.000125,6.25e-08,239627.0075,29.1005246,2.143895671e-05
39944,0.136125,0.01,0.000125,6.25e-08,239707.8761,29.1155192,2.144562929e-05
39945,0.136375,0.01,0.000125,6.25e-08,239772.2209,29.12745134,2.14509383e-05
39946,0.136625,0.01,0.000125,6.25e-08,239821.1821,29.13653155,2.145497793e-05
39947,0.136875,0.01,0.000125,6.25e-08,239855.8188,29.14295559,2.145783563e-05
39948,0.137125,0.01,0.000125,6.25e-08,239877.704,29.14701481,2.145964125e-05
39949,0.137375,0.01,0.000125,6.25e-08,239887.8768,29.14890168,2.146048054e-05
39950,0.137625,0.01,0.000125,6.25e-08,239887.3563,29.14880514,2.146043758e-05
39951,0.137875,0.01,0.000125,6.25e-08,239877.119,29.1469063,2.145959296e-05
39952,0.138125,0.01,0.000125,6.25e-08,239858.0969,29.14337811,2.145802354e-05
39953,0.138375,0.01,0.000125,6.25e-08,239831.1915,29.13838795,2.145580369e-05
39954,0.138625,0.01,0.000125,6.25e-08,239797.2052,29.13208478,2.14529996e-05
39955,0.138875,0.01,0.000125,6.25e-08,239756.8454,29.12459999,2.14496696e-05
39956,0.139125,0.01,0.000125,6.25e-08,239710.8435,29.11606945,2.144587401e-05
39957,0.139375,0.01,0.000125,6.25e-08,239659.892,29.1066218,2.144166994e-05
39958,0.139625,0.01,0.000125,6.25e-08,239604.6313,29.09637598,2.143711022e-05
39959,0.139875,0.01,0.000125,6.25e-08,239545.6536,29.08544198,2.143224368e-05
39960,0.140125,0.01,0.000125,6.25e-08,239483.5018,29.07392064,2.142711509e-05
39961,0.140375,0.01,0.000125,6.25e-08,239418.6508,29.06190014,2.142176363e-05
39962,0.140625,0.01,0.000125,6.25e-08,239351.5619,29.04946615,2.141622734e-05
39963,0.140875,0.01,0.000125,6.25e-08,239282.6661,29.03669865,2.141054178e-05
39964,0.141125,0.01,0.000125,6.25e-08,239212.3539,29.0236701,2.140473916e-05
39965,0.141375,0.01,0.000125,6.25e-08,239140.9816,29.01044663,2.139884887e-05
39966,0.141625,0.01,0.000125,6.25e-08,239068.8746,28.99708855,2.139289776e-05
39967,0.141875,0.01,0.000125,6.25e-08,238996.3317,28.98365127,2.13869105e-05
39968,0.142125,0.01,0.000125,6.25e-08,238923.624,28.97018502,2.138090944e-05
39969,0.142375,0.01,0.000125,6.25e-08,238850.9967,28.95673524,2.137491484e-05
39970,0.142625,0.01,0.000125,6.25e-08,238778.6566,28.94334017,2.136894374e-05
39971,0.142875,0.01,0.000125,6.25e-08,238706.7963,28.93003549,2.136301208e-05
39972,0.143125,0.01,0.000125,6.25e-08,238635.5901,28.91685342,2.135713422e-05
39973,0.143375,0.01,0.000125,6.25e-08,238565.1935,28.90382269,2.135132301e-05
39974,0.143625,0.01,0.000125,6.25e-08,238495.7345,28.89096696,2.134558903e-05
39975,0.143875,0.01,0.000125,6.25e-08,238427.3268,28.87830721,2.133994167e-05
39976,0.144125,0.01,0.000125,6.25e-08,238360.0749,28.86586272,2.133438957e-05
39977,0.144375,0.01,0.000125,6.25e-08,238294.0748,28.85365115,2.132894064e-05
39978,0.144625,0.01,0.000125,6.25e-08,238229.4069,28.84168733,2.132360156e-05
39979,0.144875,0.01,0.000125,6.25e-08,238166.1402,28.82998394,2.131837802e-05
39980,0.145125,0.01,0.000125,6.25e-08,238104.332,28.81855149,2.131327475e-05
39981,0.145375,0.01,0.000125,6.25e-08,238044.0305,28.80739884,2.130829577e-05
39982,0.145625,0.01,0.000125,6.25e-08,237985.2741,28.79653297,2.130344423e-05
39983,0.145875,0.01,0.000125,6.25e-08,237928.0943,28.78595967,2.129872275e-05
39984,0.146125,0.01,0.000125,6.25e-08,237872.5136,28.77568298,2.12941332e-05
39985,0.146375,0.01,0.000125,6.25e-08,237818.5503,28.76570624,2.128967711e-05
39986,0.146625,0.01,0.000125,6.25e-08,237766.2146,28.75603123,2.128535532e-05
39987,0.146875,0.01,0.000125,6.25e-08,237715.5156,28.74665956,2.128116858e-05
39988,0.147125,0.01,0.000125,6.25e-08,237666.4537,28.73759123,2.127711695e-05
39989,0.147375,0.01,0.000125,6.25e-08,237619.0307,28.72882652,2.127320058e-05
39990,0.147625,0.01,0.000125,6.25e-08,237573.2384,28.72036382,2.126941881e-05
39991,0.147875,0.01,0.000125,6.25e-08,237529.0729,28.71220236,2.126577131e-05
39992,0.148125,0.01,0.000125,6.25e-08,237486.5131,28.70433819,2.126225637e-05
39993,0.148375,0.01,0.000125,6.25e-08,237445.5616,28.69677168,2.125887418e-05
39994,0.148625,0.01,0.000125,6.25e-08,237406.1306,28.68948659,2.125561751e-05
39995,0.148875,0.01,0.000125,6.25e-08,237368.2938,28.6824965,2.125249247e-05
39996,0.149125,0.01,0.000125,6.25e-08,237331.6734,28.67573151,2.124946784e-05
39997,0.149375,0.01,0.000125,6.25e-08,237296.6845,28.6692683,2.124657791e-05