# Residuals       
# Time            	Ux                	Uy                	p                 	k                 	omega             
0                 	N/A	N/A	N/A	N/A
1                 	1.0000000000e+00	0.0000000000e+00	1.0000000000e+00	1.0000000000e+00	1.2866196422e-02
2                 	5.1979832328e-01	6.5983347193e-01	2.6705291070e-02	1.4899825062e-01	3.1295124511e-03
3                 	3.8775279234e-01	4.3256348696e-01	4.6658357101e-02	8.0575852903e-02	1.0622282155e-03
4                 	2.0435343063e-01	3.6085766412e-01	1.2721255210e-01	6.5660372946e-02	9.3025751736e-04
5                 	1.2470670842e-01	5.0304208586e-01	4.9909357932e-02	5.2093269991e-02	7.3613021108e-04
6                 	1.2789305111e-01	4.4076095242e-01	4.4510073778e-02	4.8405269023e-02	6.3929877918e-04
7                 	1.1018426812e-01	4.6163184354e-01	3.9557642687e-02	4.3742201649e-02	7.3132902603e-04
8                 	1.2320750541e-01	4.4987607053e-01	4.2014565152e-02	3.5780084280e-02	5.3225269103e-04
9                 	1.1164279984e-01	4.1519388728e-01	3.9574426822e-02	3.1768407978e-02	5.4475732900e-04
10                	1.0444274542e-01	4.2183641492e-01	4.2036941063e-02	3.1432662322e-02	6.8210424447e-04
11                	1.0066746509e-01	3.8668436881e-01	4.3128338733e-02	2.9213171309e-02	6.5971739840e-04
12                	9.9637791134e-02	4.0696803607e-01	6.2114354604e-02	3.2871539843e-02	7.2222984997e-04
13                	8.1096084832e-02	3.6900827381e-01	6.0205544980e-02	3.2523951861e-02	6.1808923086e-04
14                	9.2025151153e-02	3.7975305651e-01	1.6134816287e-01	3.6829823852e-02	6.8627526414e-04
15                	6.9287129081e-02	3.3405818750e-01	7.4304937098e-02	3.5125666103e-02	5.0432151095e-04
16                	7.7865216287e-02	3.3479283547e-01	7.3477847927e-02	3.6876144050e-02	4.9821673758e-04
17                	6.6824506557e-02	3.3851153878e-01	5.4628633041e-02	3.5736028446e-02	3.8097129426e-04
18                	6.4560204803e-02	3.2299775219e-01	5.7016114131e-02	3.5684036844e-02	3.5249367182e-04
19                	5.5910611133e-02	3.4140044993e-01	4.8923204647e-02	3.5526991608e-02	3.1264451922e-04
20                	4.7192622480e-02	3.3989440144e-01	5.2757887897e-02	3.4543887924e-02	2.7361521944e-04
21                	4.2072830470e-02	3.7810487854e-01	5.4249521146e-02	3.4033882870e-02	2.4460969744e-04
22                	3.8124626753e-02	3.7492989306e-01	6.2487458303e-02	3.3544638488e-02	2.3378698409e-04
23                	3.4632348174e-02	3.5939995910e-01	8.1695025442e-02	3.3256146573e-02	2.1789747639e-04
24                	3.0780283247e-02	3.1051766505e-01	1.1055195648e-01	3.2629818009e-02	2.2753645750e-04
25                	2.9860228655e-02	2.8472116313e-01	9.9444666675e-02	3.2539732766e-02	2.1608232591e-04
26                	2.5024989148e-02	2.3916144686e-01	7.7461091209e-02	3.1130387093e-02	2.3787654526e-04
27                	2.4746814149e-02	2.3335021027e-01	7.5344007760e-02	3.0601630176e-02	2.3915442026e-04
28                	2.2946153110e-02	2.1585956089e-01	6.7901222910e-02	2.8221482440e-02	2.3094607895e-04
29                	2.1307370580e-02	2.2801543912e-01	7.2257852410e-02	2.7071888654e-02	2.1216519123e-04
30                	2.0156866658e-02	2.3882236652e-01	7.2597759116e-02	2.5677971010e-02	2.1412365076e-04
31                	1.7820538151e-02	2.2656661855e-01	8.1764106956e-02	2.4538199359e-02	1.9694296126e-04
32                	1.6726712703e-02	2.1882692704e-01	9.1469106926e-02	2.3740896097e-02	1.9264248266e-04
33                	1.5943118328e-02	2.0203507898e-01	1.0542713506e-01	2.2882496004e-02	1.7852529765e-04
34                	1.4588353314e-02	1.9604563153e-01	9.1792585997e-02	2.2683658689e-02	1.7239943261e-04
35                	1.3177974290e-02	1.8010766443e-01	8.0912711265e-02	2.2454969496e-02	1.6427374420e-04
36                	1.2389732924e-02	1.8122411236e-01	7.8277466344e-02	2.2117689705e-02	1.5892756144e-04
37                	1.1110551822e-02	1.7949996505e-01	7.3894484037e-02	2.2034215407e-02	1.5407834181e-04
38                	1.1077775604e-02	1.8977940518e-01	7.3454957129e-02	2.1658908758e-02	1.4063872760e-04
39                	1.0592470224e-02	2.0498484266e-01	7.2105639165e-02	2.1558261937e-02	1.2768184459e-04
40                	1.0033984462e-02	2.1110430095e-01	7.2970683514e-02	2.1420969230e-02	1.1631208075e-04
41                	9.4913595112e-03	2.2521209359e-01	7.4251454742e-02	2.1588654607e-02	1.0545772077e-04
42                	8.7474166980e-03	2.0174410088e-01	7.5526956186e-02	2.1809562666e-02	9.3367499357e-05
43                	8.2262357938e-03	1.9574999917e-01	8.1298309703e-02	2.2177113339e-02	9.1391768735e-05
44                	7.9457907862e-03	1.7599493195e-01	9.0545051627e-02	2.2216276865e-02	9.5630554159e-05
45                	7.2402234870e-03	1.6937278848e-01	1.0447617642e-01	2.2158209793e-02	9.5217738326e-05
46                	7.0222147203e-03	1.6067290694e-01	9.7371448005e-02	2.2237774137e-02	9.6556274880e-05
47                	6.5608358482e-03	1.5432078427e-01	9.7402668392e-02	2.2183188003e-02	9.0416135176e-05
48                	6.3088626858e-03	1.4907873668e-01	9.5849752655e-02	2.2026518823e-02	8.5517286958e-05
49                	6.0793786485e-03	1.4748981364e-01	9.8058782810e-02	2.1991461583e-02	7.5386963616e-05
50                	5.9255776535e-03	1.4814782641e-01	9.9934786405e-02	2.2031062060e-02	6.6945415126e-05
51                	5.6752466068e-03	1.3994349420e-01	9.4779644631e-02	2.1928098587e-02	6.1831888415e-05
52                	5.3689958521e-03	1.4101423044e-01	8.5462316465e-02	2.2181513246e-02	6.5248601707e-05
53                	5.1005972337e-03	1.3625909037e-01	8.0039056738e-02	2.2765454020e-02	6.8617263590e-05
54                	4.8560146728e-03	1.3960453776e-01	7.6556294228e-02	2.3196685414e-02	7.2802662883e-05
55                	4.6833201887e-03	1.4497683471e-01	7.3885434138e-02	2.3661907783e-02	7.3454580730e-05
56                	4.5033293231e-03	1.5661278303e-01	7.1796791907e-02	2.3768815025e-02	7.3022524584e-05
57                	4.4408061818e-03	1.7143300812e-01	7.0458827686e-02	2.4010656295e-02	6.9147452801e-05
58                	4.3139659428e-03	1.8021760804e-01	6.9970258699e-02	2.3906905745e-02	6.4764365582e-05
59                	4.1992275094e-03	1.8452518669e-01	6.9495585338e-02	2.4143361591e-02	6.1525918676e-05
60                	3.9729952527e-03	1.6977932668e-01	6.9696243049e-02	2.4065554032e-02	5.5680518917e-05
61                	3.7490820031e-03	1.5625437894e-01	6.9878693069e-02	2.4194354955e-02	5.0747102539e-05
62                	3.4551870036e-03	1.3703856377e-01	7.2656280102e-02	2.4057850250e-02	4.6852871909e-05
63                	3.2227943980e-03	1.2559391039e-01	7.3206743576e-02	2.4242105374e-02	4.4940043782e-05
64                	3.0115485282e-03	1.1548907647e-01	7.4864792325e-02	2.4152761630e-02	4.4125526699e-05
65                	2.8328243418e-03	1.1573300080e-01	7.3369692698e-02	2.4286984004e-02	4.2656885847e-05
66                	2.7708829795e-03	1.1475607865e-01	7.2529995364e-02	2.4169014774e-02	4.1341071673e-05
67                	2.7041155993e-03	1.1819273164e-01	6.8587489929e-02	2.4242707612e-02	4.0662326900e-05
68                	2.6734482620e-03	1.1750036943e-01	6.5697289968e-02	2.4206901663e-02	3.9677964453e-05
69                	2.5828482240e-03	1.1890031176e-01	6.1913090348e-02	2.4394948296e-02	3.8529467070e-05
70                	2.5000046433e-03	1.1549911133e-01	6.0059420988e-02	2.4420056754e-02	3.8217803174e-05
71                	2.4089819187e-03	1.1395112239e-01	5.7615058040e-02	2.4785930990e-02	3.8981875859e-05
72                	2.3054519762e-03	1.1217655078e-01	5.6845451779e-02	2.4857747156e-02	3.9564703768e-05
73                	2.1551780301e-03	1.1171073037e-01	5.5705846749e-02	2.5189862034e-02	4.0390779037e-05
74                	2.0929138698e-03	1.1549805736e-01	5.5398835536e-02	2.5195050175e-02	3.9487200164e-05
75                	2.0429789389e-03	1.2208757518e-01	5.4780930893e-02	2.5380121012e-02	3.8081524119e-05
76                	2.0076547592e-03	1.2376443586e-01	5.4486158369e-02	2.5316414703e-02	3.4876913965e-05
77                	1.9678449201e-03	1.2642743877e-01	5.4067678840e-02	2.5424981348e-02	3.2754029493e-05
78                	1.8968126791e-03	1.2026869828e-01	5.4406011339e-02	2.5444208015e-02	3.0052501726e-05
79                	1.8143994305e-03	1.1551730615e-01	5.4573675702e-02	2.5574978668e-02	2.8457951028e-05
80                	1.7190215051e-03	1.0489982283e-01	5.4684208134e-02	2.5599994912e-02	2.7190523851e-05
81                	1.6097890650e-03	9.9960139959e-02	5.4351233002e-02	2.5789089031e-02	2.7091680257e-05
82                	1.5262047076e-03	9.2132036028e-02	5.3922236098e-02	2.5663895901e-02	2.6561676888e-05
83                	1.4612267448e-03	9.2221248380e-02	5.2918245271e-02	2.5764430757e-02	2.6693465963e-05
84                	1.4705154693e-03	9.1712787797e-02	5.1711181872e-02	2.5704516746e-02	2.6268538632e-05
85                	1.4335429990e-03	9.6174758762e-02	5.0215014500e-02	2.5755156335e-02	2.6218390407e-05
86                	1.4456696481e-03	9.7269135851e-02	4.9014392800e-02	2.5719570582e-02	2.5660186901e-05
87                	1.3956218800e-03	1.0035807265e-01	4.7856221647e-02	2.5784176759e-02	2.5454836419e-05
88                	1.3864009915e-03	9.8729146307e-02	4.6825950258e-02	2.5705172122e-02	2.4952585465e-05
89                	1.3337348318e-03	9.7707863132e-02	4.5857047524e-02	2.5938648813e-02	2.4674590046e-05
90                	1.3052006884e-03	9.2744813961e-02	4.5024516540e-02	2.6047542161e-02	2.3895554047e-05
91                	1.2295743634e-03	8.9244739224e-02	4.4293894070e-02	2.6226484162e-02	2.3527220376e-05
92                	1.1909910497e-03	8.4174371179e-02	4.3709820937e-02	2.6306120766e-02	2.2592710663e-05
93                	1.1134635158e-03	8.2480304523e-02	4.3299244919e-02	2.6470243723e-02	2.2047287667e-05
94                	1.0994310925e-03	7.9454488803e-02	4.2867217117e-02	2.6568259054e-02	2.0873255246e-05
95                	1.0484299292e-03	8.1574685845e-02	4.2547345221e-02	2.6661807935e-02	1.9962891596e-05
96                	1.0493664917e-03	7.9402319039e-02	4.1996710183e-02	2.6701980544e-02	1.9075440484e-05
97                	1.0157521552e-03	8.2902672478e-02	4.1369378679e-02	2.6775598863e-02	1.8385447131e-05
98                	1.0235968322e-03	8.0491897488e-02	4.0751730089e-02	2.6822346083e-02	1.7764924057e-05
99                	9.8973250442e-04	8.2814649046e-02	4.0149393926e-02	2.7003160550e-02	1.7590556017e-05
100               	9.8410737208e-04	7.9511934682e-02	3.9493062072e-02	2.6991056433e-02	1.7172892220e-05
101               	9.4269228560e-04	8.0771693785e-02	3.8864118166e-02	2.7184546902e-02	1.7094704420e-05
102               	9.2191364880e-04	7.7644091210e-02	3.8376639341e-02	2.7098889850e-02	1.6474231440e-05
103               	8.7987561828e-04	7.7905204028e-02	3.7869383164e-02	2.7362279612e-02	1.6095888584e-05
104               	8.6076561417e-04	7.5116172037e-02	3.7557942558e-02	2.7289093743e-02	1.5230422775e-05
105               	8.1951275618e-04	7.4571010200e-02	3.6996952599e-02	2.7373503759e-02	1.4668654508e-05
106               	8.0764328823e-04	7.1700762826e-02	3.6645397176e-02	2.7330456548e-02	1.3575853714e-05
107               	7.7357758257e-04	7.1041875521e-02	3.6140724713e-02	2.7553385608e-02	1.3057192100e-05
108               	7.7218266527e-04	6.8527251729e-02	3.5917163215e-02	2.7357311919e-02	1.2316045744e-05
109               	7.4054265282e-04	6.8115509822e-02	3.5483261623e-02	2.7629885078e-02	1.2224787957e-05
110               	7.4192643412e-04	6.5751442148e-02	3.5099017009e-02	2.7621418621e-02	1.1808071865e-05
111               	7.1076613353e-04	6.5810780547e-02	3.4493833051e-02	2.7734793038e-02	1.1993861533e-05
112               	7.1157945854e-04	6.3707279703e-02	3.4055727216e-02	2.7753911419e-02	1.1795477947e-05
113               	6.8434685267e-04	6.4028095196e-02	3.3514887972e-02	2.7962942046e-02	1.2168247998e-05
114               	6.8791631650e-04	6.2538153909e-02	3.3179817266e-02	2.7864663122e-02	1.1993231561e-05
115               	6.6505420731e-04	6.2674616540e-02	3.2741250750e-02	2.8020564100e-02	1.2272936311e-05
116               	6.6755648852e-04	6.1335211152e-02	3.2537558052e-02	2.7894888132e-02	1.1824830179e-05
117               	6.4118903587e-04	6.1808609512e-02	3.2174936723e-02	2.8121329812e-02	1.1777354524e-05
118               	6.3906283159e-04	5.9975569764e-02	3.1918723388e-02	2.8037662679e-02	1.1011285318e-05
119               	6.1189620066e-04	6.1152875325e-02	3.1423957914e-02	2.8172349540e-02	1.0572513865e-05
120               	6.0682199245e-04	5.8579342500e-02	3.0986542713e-02	2.8056779140e-02	9.8018924833e-06
121               	5.8275574851e-04	6.0022338413e-02	3.0419793753e-02	2.8131145285e-02	9.4452176464e-06
122               	5.7913864336e-04	5.6709204310e-02	2.9930847098e-02	2.8111260762e-02	8.7370781701e-06
123               	5.5597264761e-04	5.7959066120e-02	2.9489553193e-02	2.8263856214e-02	8.5922335768e-06
124               	5.5608533343e-04	5.4330343401e-02	2.8973685552e-02	2.8167726869e-02	7.9503830812e-06
125               	5.3304518347e-04	5.5340881169e-02	2.8454915948e-02	2.8312877496e-02	7.8853675017e-06
126               	5.3232122039e-04	5.1985071823e-02	2.7937614308e-02	2.8252955427e-02	7.2737682035e-06
127               	5.1089599640e-04	5.3130939699e-02	2.7461932176e-02	2.8300471896e-02	7.2442643622e-06
128               	5.0871625763e-04	5.0483849026e-02	2.7058172597e-02	2.8269437703e-02	6.7513764047e-06
129               	4.9071779668e-04	5.1475985449e-02	2.6722850860e-02	2.8345610914e-02	6.8782183696e-06
130               	4.8701797473e-04	4.9392062581e-02	2.6398897405e-02	2.8312781119e-02	6.4917374795e-06
131               	4.6925702725e-04	4.9877261579e-02	2.6131012050e-02	2.8428571564e-02	6.5374812791e-06
132               	4.6384478586e-04	4.7965026104e-02	2.5910525206e-02	2.8319737586e-02	6.1016859298e-06
133               	4.4594498067e-04	4.8071921743e-02	2.5603414652e-02	2.8506352551e-02	6.1029160352e-06
134               	4.4284497033e-04	4.6433994569e-02	2.5375256786e-02	2.8366537782e-02	5.8372557442e-06
135               	4.2542461325e-04	4.6456569719e-02	2.4942041974e-02	2.8494761014e-02	5.9487794847e-06
136               	4.2468509112e-04	4.4930791100e-02	2.4702520376e-02	2.8504906244e-02	5.8422652601e-06
137               	4.0712954910e-04	4.4964973278e-02	2.4194341825e-02	2.8581201189e-02	5.9413610622e-06
138               	4.0981844648e-04	4.3571182331e-02	2.4037656602e-02	2.8513466510e-02	5.7379150459e-06
139               	3.9378789731e-04	4.3564908038e-02	2.3621245575e-02	2.8688412820e-02	5.7534744750e-06
140               	3.9919098306e-04	4.2395039042e-02	2.3505915749e-02	2.8611590448e-02	5.5141637162e-06
141               	3.8342761179e-04	4.2339626809e-02	2.3108722173e-02	2.8746498401e-02	5.6025572719e-06
142               	3.8778653327e-04	4.1205002069e-02	2.3049970796e-02	2.8665266798e-02	5.3623803310e-06
143               	3.7080236719e-04	4.1241459010e-02	2.2676573212e-02	2.8798527162e-02	5.4399334171e-06
144               	3.7275931734e-04	3.9965476309e-02	2.2604452939e-02	2.8679619703e-02	5.1640015340e-06
145               	3.5642276331e-04	4.0028819096e-02	2.2196171906e-02	2.8880743317e-02	5.2063473610e-06
146               	3.5735191619e-04	3.8766851543e-02	2.2040848561e-02	2.8770005790e-02	4.9578038284e-06
147               	3.4422303740e-04	3.9110012105e-02	2.1654771988e-02	2.8870827270e-02	4.9876010114e-06
148               	3.4565521493e-04	3.7859932834e-02	2.1451453777e-02	2.8872456407e-02	4.7514687928e-06
149               	3.3583839374e-04	3.8620124552e-02	2.1113234099e-02	2.8983294381e-02	4.8529127413e-06
150               	3.3581328511e-04	3.7065062439e-02	2.0904136082e-02	2.8915268028e-02	4.5984063099e-06
151               	3.2708313469e-04	3.8166982734e-02	2.0545098327e-02	2.9095063458e-02	4.6433850216e-06
152               	3.2550216650e-04	3.6306847749e-02	2.0294743130e-02	2.8992567289e-02	4.3346777351e-06
153               	3.1546807169e-04	3.7636284054e-02	2.0007197029e-02	2.9127323450e-02	4.3341329885e-06
154               	3.1338871080e-04	3.5553947533e-02	1.9834288630e-02	2.9062688851e-02	4.0609933552e-06
155               	3.0290187768e-04	3.6834429593e-02	1.9590393753e-02	2.9229224306e-02	4.0246656633e-06
156               	3.0400232333e-04	3.4577682613e-02	1.9400016270e-02	2.9086718691e-02	3.8125031438e-06
157               	2.9507318057e-04	3.5705108428e-02	1.9167197124e-02	2.9278361661e-02	3.7938135787e-06
158               	2.9764490823e-04	3.3483294881e-02	1.8988500558e-02	2.9175419930e-02	3.6540335202e-06
159               	2.8889787981e-04	3.4418578819e-02	1.8731444436e-02	2.9228288787e-02	3.6652191900e-06
160               	2.9042015447e-04	3.2326405957e-02	1.8524163356e-02	2.9184557944e-02	3.5754721798e-06
161               	2.8155033203e-04	3.3111935302e-02	1.8272875234e-02	2.9273421656e-02	3.6110581999e-06
162               	2.8272600256e-04	3.1415478838e-02	1.8083279188e-02	2.9233982078e-02	3.5670398060e-06
163               	2.7330467158e-04	3.2074319882e-02	1.7843283676e-02	2.9433982582e-02	3.6234202949e-06
164               	2.7372256903e-04	3.0730548296e-02	1.7709850853e-02	2.9318401443e-02	3.5521986065e-06
165               	2.6344886804e-04	3.1357183467e-02	1.7500016239e-02	2.9397465836e-02	3.6109854920e-06
166               	2.6382834929e-04	3.0251615539e-02	1.7425353589e-02	2.9313730396e-02	3.5863375404e-06
167               	2.5321559044e-04	3.0800376878e-02	1.7249434757e-02	2.9467812358e-02	3.6085756789e-06
168               	2.5375013487e-04	2.9745058080e-02	1.7189999435e-02	2.9413583880e-02	3.5755971079e-06
169               	2.4335917528e-04	3.0185444410e-02	1.6988836509e-02	2.9524964494e-02	3.5376543333e-06
170               	2.4458665035e-04	2.9264681450e-02	1.6908688020e-02	2.9359559162e-02	3.4584175919e-06
171               	2.3456497859e-04	2.9673725801e-02	1.6669684222e-02	2.9551700506e-02	3.3752133529e-06
172               	2.3765229087e-04	2.8783664501e-02	1.6584350482e-02	2.9450053233e-02	3.2204104837e-06
173               	2.2791912402e-04	2.9077257100e-02	1.6327701098e-02	2.9493262285e-02	3.1305749168e-06
174               	2.3177746115e-04	2.8213857095e-02	1.6229342858e-02	2.9428751457e-02	2.9536467574e-06
175               	2.2200917780e-04	2.8438009614e-02	1.5964940735e-02	2.9586932874e-02	2.9059427608e-06
176               	2.2636094036e-04	2.7551051797e-02	1.5823708548e-02	2.9482057842e-02	2.7460799175e-06
177               	2.1728706751e-04	2.7774066585e-02	1.5612856448e-02	2.9495057947e-02	2.7559461489e-06
178               	2.2175759757e-04	2.6921972158e-02	1.5529362583e-02	2.9461647417e-02	2.6166921250e-06
179               	2.1341300656e-04	2.7163779549e-02	1.5382073093e-02	2.9584366353e-02	2.6467091544e-06
180               	2.1707960340e-04	2.6258554004e-02	1.5314646019e-02	2.9520972830e-02	2.5036491430e-06
181               	2.0903234588e-04	2.6651390350e-02	1.5193382640e-02	2.9678195230e-02	2.5481242618e-06
182               	2.1141217924e-04	2.5569859812e-02	1.5089770856e-02	2.9547813592e-02	2.3820766932e-06
183               	2.0403502421e-04	2.6146645281e-02	1.4975805169e-02	2.9632062514e-02	2.4135094509e-06
184               	2.0517040354e-04	2.4958572872e-02	1.4850554160e-02	2.9499130806e-02	2.2226682270e-06
185               	1.9823166948e-04	2.5657721333e-02	1.4726809848e-02	2.9622822069e-02	2.2552285719e-06
186               	1.9956620785e-04	2.4417790378e-02	1.4577344594e-02	2.9599941616e-02	2.1201179449e-06
187               	1.9307986847e-04	2.5199445765e-02	1.4427861645e-02	2.9677513160e-02	2.1632664604e-06
188               	1.9515999491e-04	2.3986221229e-02	1.4242927279e-02	2.9625856143e-02	2.0822760862e-06
189               	1.8869018886e-04	2.4819525551e-02	1.4078952933e-02	2.9708999019e-02	2.1228389329e-06
190               	1.9098186078e-04	2.3611937312e-02	1.3876426266e-02	2.9577579815e-02	2.0557276863e-06
191               	1.8512634806e-04	2.4412818578e-02	1.3701612851e-02	2.9697203175e-02	2.0896389570e-06
192               	1.8763378799e-04	2.3194876137e-02	1.3492859228e-02	2.9681894348e-02	2.0297709717e-06
193               	1.8150402750e-04	2.3892992783e-02	1.3350238421e-02	2.9766014008e-02	2.0621734758e-06
194               	1.8421674620e-04	2.2680017866e-02	1.3168672023e-02	2.9674690626e-02	2.0066705792e-06
195               	1.7788846636e-04	2.3276587153e-02	1.3085872563e-02	2.9795620824e-02	2.0529783178e-06
196               	1.8059034819e-04	2.2119734505e-02	1.2952096300e-02	2.9702534594e-02	2.0206367548e-06
197               	1.7363285544e-04	2.2611024521e-02	1.2875168521e-02	2.9852977189e-02	2.0668641772e-06
198               	1.7581587782e-04	2.1542350241e-02	1.2758350024e-02	2.9726330803e-02	2.0398742696e-06
199               	1.6866871059e-04	2.1979159200e-02	1.2676499098e-02	2.9835783889e-02	2.0681268520e-06
200               	1.7068043983e-04	2.1100439450e-02	1.2575513147e-02	2.9784153688e-02	2.0134642627e-06
201               	1.6317392308e-04	2.1455962907e-02	1.2494652925e-02	2.9893593133e-02	2.0103529430e-06
202               	1.6566578853e-04	2.0767573126e-02	1.2405768174e-02	2.9726428064e-02	1.9592496919e-06
203               	1.5783010531e-04	2.1059721228e-02	1.2309779852e-02	2.9834636857e-02	1.9246373704e-06
204               	1.6056144360e-04	2.0501431229e-02	1.2220660203e-02	2.9782524518e-02	1.8835654099e-06
205               	1.5300680571e-04	2.0687996019e-02	1.2103752073e-02	2.9893180284e-02	1.8308923935e-06
206               	1.5542292800e-04	2.0228107313e-02	1.2029721753e-02	2.9800339067e-02	1.7785947675e-06
207               	1.4851394497e-04	2.0255005118e-02	1.1891879017e-02	2.9840562077e-02	1.7415406097e-06
208               	1.5059197679e-04	1.9865928580e-02	1.1826844597e-02	2.9817187731e-02	1.6890474268e-06
209               	1.4462478710e-04	1.9801131048e-02	1.1688855055e-02	2.9962189629e-02	1.6784716323e-06
210               	1.4634995454e-04	1.9509765074e-02	1.1643854239e-02	2.9798042918e-02	1.6321221758e-06
211               	1.4114028239e-04	1.9447180672e-02	1.1505368584e-02	2.9982331948e-02	1.6163157947e-06
212               	1.4299115419e-04	1.9145106903e-02	1.1476907929e-02	2.9856111566e-02	1.5665885432e-06
213               	1.3766316718e-04	1.9120667737e-02	1.1327535936e-02	3.0010597535e-02	1.5416712800e-06
214               	1.3979621976e-04	1.8731879216e-02	1.1282813678e-02	2.9878589418e-02	1.5053253362e-06
215               	1.3444168826e-04	1.8787055892e-02	1.1122653842e-02	3.0034302467e-02	1.4842959148e-06
216               	1.3692826914e-04	1.8304853101e-02	1.1061465490e-02	2.9866098220e-02	1.4560354003e-06
217               	1.3170780210e-04	1.8498905960e-02	1.0904131674e-02	3.0020484477e-02	1.4526903039e-06
218               	1.3407341878e-04	1.7921899499e-02	1.0832917503e-02	2.9930548948e-02	1.4159742283e-06
219               	1.2940838813e-04	1.8244800589e-02	1.0686401836e-02	3.0085124590e-02	1.4191054105e-06
220               	1.3178701942e-04	1.7572360171e-02	1.0602520407e-02	2.9956603736e-02	1.3785533880e-06
221               	1.2781226678e-04	1.7935945185e-02	1.0454549731e-02	3.0070038356e-02	1.4046208159e-06
222               	1.2949331580e-04	1.7230801985e-02	1.0373686854e-02	3.0019524880e-02	1.3577028852e-06
223               	1.2541022310e-04	1.7644520354e-02	1.0235884541e-02	3.0165330167e-02	1.3819646415e-06
224               	1.2693107615e-04	1.6870584912e-02	1.0154323373e-02	3.0006036220e-02	1.3214007505e-06
225               	1.2264444426e-04	1.7335765932e-02	1.0025099451e-02	3.0046172735e-02	1.3389639436e-06
226               	1.2418416829e-04	1.6538838980e-02	9.9456055668e-03	3.0029495150e-02	1.3009453513e-06
227               	1.1976159987e-04	1.7025621338e-02	9.8324908471e-03	3.0138542420e-02	1.3123282506e-06
228               	1.2175510849e-04	1.6219546070e-02	9.7477041859e-03	3.0087996308e-02	1.2801463819e-06
229               	1.1733600849e-04	1.6696814171e-02	9.6441166465e-03	3.0164671951e-02	1.2887345932e-06
230               	1.1962922333e-04	1.5876080682e-02	9.5613206063e-03	3.0067840917e-02	1.2541720691e-06
231               	1.1503827454e-04	1.6299028667e-02	9.4626946593e-03	3.0174526960e-02	1.2574624202e-06
232               	1.1758399045e-04	1.5502427491e-02	9.3898146990e-03	3.0046523477e-02	1.2371259938e-06
233               	1.1259087092e-04	1.5819731230e-02	9.2798046452e-03	3.0191513481e-02	1.2501318648e-06
234               	1.1527064240e-04	1.5123393782e-02	9.2125281547e-03	3.0101695805e-02	1.2434194837e-06
235               	1.1002023912e-04	1.5407397740e-02	9.0883363996e-03	3.0248757047e-02	1.2496938706e-06
236               	1.1261773377e-04	1.4793307191e-02	9.0155288414e-03	3.0117958748e-02	1.2484770548e-06
237               	1.0751220351e-04	1.5051374592e-02	8.8812136602e-03	3.0226310444e-02	1.2385364458e-06
238               	1.0991685496e-04	1.4506309578e-02	8.8301094840e-03	3.0132877867e-02	1.2392778269e-06
239               	1.0483663573e-04	1.4732621915e-02	8.7050386900e-03	3.0233859377e-02	1.2114068237e-06
240               	1.0708496930e-04	1.4267316732e-02	8.6760114392e-03	3.0146146988e-02	1.2185154703e-06
241               	1.0224160382e-04	1.4410794820e-02	8.5428748453e-03	3.0287145130e-02	1.1816248781e-06
242               	1.0420033183e-04	1.4031828241e-02	8.5247785401e-03	3.0158680373e-02	1.1783240779e-06
243               	9.9524325564e-05	1.4118852771e-02	8.3904943066e-03	3.0236528384e-02	1.1263654822e-06
244               	1.0137447850e-04	1.3793984656e-02	8.3772547341e-03	3.0209072750e-02	1.1219931838e-06
245               	9.6876844326e-05	1.3817814824e-02	8.2484169237e-03	3.0321282354e-02	1.0657407204e-06
246               	9.8682625362e-05	1.3558255593e-02	8.2408129255e-03	3.0221236475e-02	1.0703076605e-06
247               	9.4375619449e-05	1.3545334370e-02	8.1227084748e-03	3.0327479529e-02	1.0273002964e-06
248               	9.6277772694e-05	1.3330775860e-02	8.1103700454e-03	3.0234141095e-02	1.0408228015e-06
249               	9.2072965179e-05	1.3305674208e-02	7.9921996283e-03	3.0317343875e-02	1.0045530936e-06
250               	9.4067424495e-05	1.3115793701e-02	7.9695367122e-03	3.0209915139e-02	1.0189835840e-06
251               	9.0150955780e-05	1.3129346839e-02	7.8538448553e-03	3.0364119742e-02	9.9174546859e-07
252               	9.2184716238e-05	1.2901130821e-02	7.8192324283e-03	3.0224192748e-02	1.0027395396e-06
253               	8.8567733800e-05	1.2958136897e-02	7.7066113788e-03	3.0339212448e-02	9.8850366573e-07
254               	9.0348212290e-05	1.2681691937e-02	7.6559459163e-03	3.0277746677e-02	9.9000159295e-07
255               	8.7106001922e-05	1.2796065332e-02	7.5554907092e-03	3.0322056951e-02	9.8427522635e-07
256               	8.8515289260e-05	1.2463472852e-02	7.5001624016e-03	3.0254679186e-02	9.7841982720e-07
257               	8.5543654378e-05	1.2629188490e-02	7.4196249068e-03	3.0368783102e-02	9.7333077787e-07
258               	8.6609800761e-05	1.2232664469e-02	7.3596223914e-03	3.0231208390e-02	9.5344919493e-07
259               	8.4014730903e-05	1.2448239968e-02	7.2929248490e-03	3.0454748681e-02	9.4762390077e-07
260               	8.4853019439e-05	1.1989635061e-02	7.2330883343e-03	3.0323889206e-02	9.2587774430e-07
261               	8.2489538759e-05	1.2249446537e-02	7.1800104573e-03	3.0397249161e-02	9.1561413483e-07
262               	8.3228844553e-05	1.1726054258e-02	7.1128937159e-03	3.0299846238e-02	8.9836045484e-07
263               	8.1152292109e-05	1.2028062935e-02	7.0601561131e-03	3.0378207804e-02	8.9009068938e-07
264               	8.1908323394e-05	1.1468915786e-02	6.9912618851e-03	3.0312957074e-02	8.8118390677e-07
265               	7.9891648631e-05	1.1809892323e-02	6.9378297989e-03	3.0429643745e-02	8.7141387439e-07
266               	8.0968157737e-05	1.1257155477e-02	6.8593381453e-03	3.0325208049e-02	8.7186365741e-07
267               	7.8659798232e-05	1.1620907403e-02	6.8102578952e-03	3.0401470687e-02	8.6605332789e-07
268               	8.0015940077e-05	1.1106043503e-02	6.7368574405e-03	3.0375978912e-02	8.6986279389e-07
269               	7.7537636690e-05	1.1442210096e-02	6.6806073719e-03	3.0445230897e-02	8.6186610603e-07
270               	7.8878796241e-05	1.0967210036e-02	6.6138872544e-03	3.0310135358e-02	8.5937043250e-07
271               	7.6206885976e-05	1.1268940756e-02	6.5467171000e-03	3.0528547368e-02	8.4233273925e-07
272               	7.7339526900e-05	1.0826233603e-02	6.4851356918e-03	3.0321119067e-02	8.3377122569e-07
273               	7.4661603330e-05	1.1087947016e-02	6.4113810963e-03	3.0499349157e-02	8.0660189380e-07
274               	7.5606339907e-05	1.0680331384e-02	6.3561761959e-03	3.0369467509e-02	7.9772602221e-07
275               	7.2945505609e-05	1.0893628396e-02	6.2913587460e-03	3.0548131355e-02	7.6833100831e-07
276               	7.4000842223e-05	1.0522392144e-02	6.2502327809e-03	3.0378007558e-02	7.7516422158e-07
277               	7.1283641005e-05	1.0677089358e-02	6.1811628795e-03	3.0485154910e-02	7.4214251662e-07
278               	7.2428973283e-05	1.0352458005e-02	6.1490447948e-03	3.0347120929e-02	7.6232500329e-07
279               	6.9675471690e-05	1.0468513136e-02	6.0722163365e-03	3.0485856555e-02	7.3230981265e-07
280               	7.0916095037e-05	1.0172458917e-02	6.0462804208e-03	3.0393736611e-02	7.6056649124e-07
281               	6.8235292153e-05	1.0260150087e-02	5.9660461154e-03	3.0573773101e-02	7.3625798314e-07
282               	6.9650959205e-05	1.0002637748e-02	5.9478987382e-03	3.0401821682e-02	7.5949941744e-07
283               	6.6924083472e-05	1.0082708833e-02	5.8679128136e-03	3.0550351464e-02	7.3339679270e-07
284               	6.8439187401e-05	9.8378723088e-03	5.8540981762e-03	3.0409914366e-02	7.4817598156e-07
285               	6.5744572710e-05	9.9127313607e-03	5.7708080421e-03	3.0518747397e-02	7.1912689979e-07
286               	6.7283836084e-05	9.6834773256e-03	5.7578017643e-03	3.0456350893e-02	7.2165547861e-07