cellI,x,y,z,omega,k,nut
0,0.000125,0.000125,0.000125,99678.53782,7.829108496,7.854357284e-05
1,0.000375,0.000125,0.000125,112324.0388,9.941557212,8.850783248e-05
2,0.000625,0.000125,0.000125,124093.0269,12.13399329,9.77814273e-05
3,0.000875,0.000125,0.000125,135095.737,14.38110589,0.000106451219
4,0.001125,0.000125,0.000125,145408.1257,16.66043541,0.0001145770591
5,0.001375,0.000125,0.000125,155086.417,18.95206421,0.0001222032502
6,0.001625,0.000125,0.000125,164174.5491,21.23834437,0.0001293644142
7,0.001875,0.000125,0.000125,172708.7708,23.50378363,0.0001360891142
8,0.002125,0.000125,0.000125,180720.3968,25.73495049,0.0001424020252
9,0.002375,0.000125,0.000125,188237.4108,27.92035111,0.0001483251973
10,0.002625,0.000125,0.000125,195285.4441,30.05029511,0.0001538788272
11,0.002875,0.000125,0.000125,201888.3949,32.11675839,0.0001590817462
12,0.003125,0.000125,0.000125,208068.8342,34.11324722,0.0001639517392
13,0.003375,0.000125,0.000125,213848.2713,36.03466442,0.000168505755
14,0.003625,0.000125,0.000125,219247.3174,37.87717416,0.0001727600347
15,0.003875,0.000125,0.000125,224285.7851,39.63806934,0.0001767301897
16,0.004125,0.000125,0.000125,228982.7506,41.31564433,0.0001804312518
17,0.004375,0.000125,0.000125,233356.5936,42.90907451,0.0001838777034
18,0.004625,0.000125,0.000125,237425.0164,44.41830148,0.0001870834934
19,0.004875,0.000125,0.000125,241205.0515,45.84392486,0.0001900620429
20,0.005125,0.000125,0.000125,244713.0663,47.18710263,0.0001928262489
21,0.005375,0.000125,0.000125,247964.7673,48.44946088,0.0001953884877
22,0.005625,0.000125,0.000125,250975.2017,49.63301047,0.0001977606159
23,0.005875,0.000125,0.000125,253758.7573,50.74007116,0.0001999539708
24,0.006125,0.000125,0.000125,256329.1676,51.77320475,0.0002019793738
25,0.006375,0.000125,0.000125,258699.5206,52.73515686,0.0002038471379
26,0.006625,0.000125,0.000125,260882.2704,53.62880562,0.0002055670765
27,0.006875,0.000125,0.000125,262889.2478,54.45711648,0.0002071485119
28,0.007125,0.000125,0.000125,264731.6742,55.22310305,0.0002086002864
29,0.007375,0.000125,0.000125,266420.1769,55.92979389,0.0002099307738
30,0.007625,0.000125,0.000125,267964.8077,56.58020497,0.0002111478946
31,0.007875,0.000125,0.000125,269375.0624,57.1773167,0.0002122591312
32,0.008125,0.000125,0.000125,270659.8999,57.72405446,0.000213271543
33,0.008375,0.000125,0.000125,271827.7615,58.22327249,0.0002141917815
34,0.008625,0.000125,0.000125,272886.591,58.67774104,0.000215026106
35,0.008875,0.000125,0.000125,273843.8556,59.09013684,0.0002157804006
36,0.009125,0.000125,0.000125,274706.5689,59.46303657,0.0002164601917
37,0.009375,0.000125,0.000125,275481.3129,59.798912,0.0002170706658
38,0.009625,0.000125,0.000125,276174.2577,60.10012635,0.0002176166846
39,0.009875,0.000125,0.000125,276791.1822,60.36893236,0.0002181028018
40,0.010125,0.000125,0.000125,277337.4951,60.60747229,0.0002185332793
41,0.010375,0.000125,0.000125,277818.2561,60.81777897,0.000218912104
42,0.010625,0.000125,0.000125,278238.1952,61.00177745,0.0002192430029
43,0.010875,0.000125,0.000125,278601.7316,61.16128718,0.0002195294582
44,0.011125,0.000125,0.000125,278912.9913,61.29802487,0.0002197747211
45,0.011375,0.000125,0.000125,279175.825,61.4136077,0.0002199818258
46,0.011625,0.000125,0.000125,279393.8243,61.50955693,0.0002201536025
47,0.011875,0.000125,0.000125,279570.338,61.58730174,0.0002202926898
48,0.012125,0.000125,0.000125,279708.487,61.64818319,0.0002204015468
49,0.012375,0.000125,0.000125,279811.1784,61.6934582,0.0002204824645
50,0.012625,0.000125,0.000125,279881.1199,61.7243038,0.0002205375762
51,0.012875,0.000125,0.000125,279920.8327,61.74182139,0.0002205688686
52,0.013125,0.000125,0.000125,279932.6644,61.74704091,0.0002205781917
53,0.013375,0.000125,0.000125,279918.8004,61.74092486,0.0002205672673
54,0.013625,0.000125,0.000125,279881.2747,61.72437208,0.0002205376982
55,0.013875,0.000125,0.000125,279821.98,61.69822142,0.0002204909758
56,0.014125,0.000125,0.000125,279742.6775,61.66325538,0.0002204284879
57,0.014375,0.000125,0.000125,279645.0057,61.62020362,0.0002203515256
58,0.014625,0.000125,0.000125,279530.4894,61.56974628,0.0002202612903
59,0.014875,0.000125,0.000125,279400.5476,61.51251728,0.0002201589002
60,0.015125,0.000125,0.000125,279256.5017,61.44910767,0.0002200453966
61,0.015375,0.000125,0.000125,279099.5834,61.38006877,0.0002199217499
62,0.015625,0.000125,0.000125,278930.9417,61.30591522,0.0002197888655
63,0.015875,0.000125,0.000125,278751.6497,61.22712775,0.0002196475889
64,0.016125,0.000125,0.000125,278562.7109,61.14415598,0.000219498711
65,0.016375,0.000125,0.000125,278365.0657,61.05742105,0.0002193429728
66,0.016625,0.000125,0.000125,278159.5974,60.96731825,0.0002191810702
67,0.016875,0.000125,0.000125,277947.1378,60.87421959,0.0002190136587
68,0.017125,0.000125,0.000125,277728.4733,60.77847623,0.0002188413579
69,0.017375,0.000125,0.000125,277504.3503,60.68042104,0.000218664756
70,0.017625,0.000125,0.000125,277275.4809,60.58037098,0.0002184844141
71,0.017875,0.000125,0.000125,277042.5485,60.47862955,0.0002183008706
72,0.018125,0.000125,0.000125,276806.2143,60.3754896,0.0002181146466
73,0.018375,0.000125,0.000125,276567.1254,60.27123709,0.0002179262521
74,0.018625,0.000125,0.000125,276325.9235,60.16615448,0.0002177361925
75,0.018875,0.000125,0.000125,276083.2503,60.0605234,0.0002175449736
76,0.019125,0.000125,0.000125,275839.7554,59.95462792,0.0002173531072
77,0.019375,0.000125,0.000125,275596.1062,59.84875889,0.0002171611193
78,0.019625,0.000125,0.000125,275352.9997,59.7432189,0.0002169695589
79,0.019875,0.000125,0.000125,275111.1754,59.63832795,0.0002167790089
80,0.020125,0.000125,0.000125,274871.4306,59.53442996,0.0002165900975
81,0.020375,0.000125,0.000125,274634.6385,59.43190048,0.0002164035127
82,0.020625,0.000125,0.000125,274401.7692,59.33115577,0.0002162200191
83,0.020875,0.000125,0.000125,274173.9192,59.23266522,0.0002160404804
84,0.021125,0.000125,0.000125,273952.3515,59.13696872,0.000215865892
85,0.021375,0.000125,0.000125,273738.5398,59.0446954,0.000215697415
86,0.021625,0.000125,0.000125,273534.2239,58.95658749,0.0002155364205
87,0.021875,0.000125,0.000125,273341.4036,58.87349718,0.0002153844841
88,0.022125,0.000125,0.000125,273157.3185,58.79422573,0.0002152394307
89,0.022375,0.000125,0.000125,272967.5041,58.71254304,0.0002150898629
90,0.022625,0.000125,0.000125,272770.8559,58.62797944,0.0002149349103
91,0.022875,0.000125,0.000125,272567.8405,58.54074171,0.0002147749405
92,0.023125,0.000125,0.000125,272357.1291,58.45026564,0.0002146089065
93,0.023375,0.000125,0.000125,272135.4099,58.35513855,0.0002144341987
94,0.023625,0.000125,0.000125,271895.6143,58.25234312,0.0002142452473
95,0.023875,0.000125,0.000125,271624.6531,58.13629669,0.0002140317383
96,0.024125,0.000125,0.000125,271294.5522,57.99507838,0.0002137716291
97,0.024375,0.000125,0.000125,270860.8044,57.80978067,0.0002134298494
98,0.024625,0.000125,0.000125,270155.3669,57.50904996,0.0002128739867
99,0.024875,0.000125,0.000125,269136.9188,57.07626507,0.0002120714814
100,0.000125,0.000375,0.000125,3889.908554,6.023144976,0.001548402717
101,0.000375,0.000375,0.000125,5202.545383,6.065247834,0.001165823148
102,0.000625,0.000375,0.000125,6407.163011,6.120772775,0.0009553015531
103,0.000875,0.000375,0.000125,7551.329555,6.188021249,0.0008194611563
104,0.001125,0.000375,0.000125,8660.870956,6.266001434,0.0007234839851
105,0.001375,0.000375,0.000125,9750.390564,6.354003741,0.000651666587
106,0.001625,0.000375,0.000125,10828.80988,6.451461095,0.0005957682483
107,0.001875,0.000375,0.000125,11902.10504,6.557917129,0.0005509880064
108,0.002125,0.000375,0.000125,12974.07278,6.672932648,0.0005143282886
109,0.002375,0.000375,0.000125,14047.15628,6.79607936,0.000483804638
110,0.002625,0.000375,0.000125,15122.71256,6.926908517,0.0004580466955
111,0.002875,0.000375,0.000125,16201.48111,7.064970064,0.0004360693949
112,0.003125,0.000375,0.000125,17283.59752,7.209788068,0.0004171462601
113,0.003375,0.000375,0.000125,18368.69184,7.360847959,0.0004007279355
114,0.003625,0.000375,0.000125,19456.29607,7.517647967,0.0003863863881
115,0.003875,0.000375,0.000125,20545.62984,7.67966399,0.0003737857661
116,0.004125,0.000375,0.000125,21635.72331,7.846360302,0.0003626576375
117,0.004375,0.000375,0.000125,22725.50399,8.01719909,0.0003527842152
118,0.004625,0.000375,0.000125,23813.83034,8.191644199,0.000343986838
119,0.004875,0.000375,0.000125,24899.54705,8.369169506,0.0003361173394
120,0.005125,0.000375,0.000125,25981.44613,8.549252388,0.0003290522146
121,0.005375,0.000375,0.000125,27058.30015,8.731382036,0.0003226877516
122,0.005625,0.000375,0.000125,28128.98014,8.915075147,0.0003169355981
123,0.005875,0.000375,0.000125,29192.38519,9.099865665,0.0003117205259
124,0.006125,0.000375,0.000125,30247.4349,9.285305504,0.0003069782787
125,0.006375,0.000375,0.000125,31293.0891,9.470968673,0.0003026536831
126,0.006625,0.000375,0.000125,32328.37482,9.656455748,0.0002986990779
127,0.006875,0.000375,0.000125,33352.38839,9.841394255,0.0002950731486
128,0.007125,0.000375,0.000125,34364.30008,10.02543959,0.0002917399617
129,0.007375,0.000375,0.000125,35363.34551,10.2082741,0.0002886682228
130,0.007625,0.000375,0.000125,36348.81597,10.38960568,0.0002858306495
131,0.007875,0.000375,0.000125,37320.08081,10.56917149,0.0002832033389
132,0.008125,0.000375,0.000125,38276.60183,10.74673995,0.000280765257
133,0.008375,0.000375,0.000125,39217.92019,10.9221077,0.0002784978816
134,0.008625,0.000375,0.000125,40143.65902,11.09510033,0.0002763848786
135,0.008875,0.000375,0.000125,41053.50067,11.26556795,0.0002744118715
136,0.009125,0.000375,0.000125,41947.17821,11.43338239,0.0002725661863
137,0.009375,0.000375,0.000125,42824.5062,11.59844213,0.0002708365644
138,0.009625,0.000375,0.000125,43685.36732,11.76066912,0.0002692130076
139,0.009875,0.000375,0.000125,44529.69138,11.9200046,0.0002676866654
140,0.010125,0.000375,0.000125,45357.45392,12.0764086,0.0002662497022
141,0.010375,0.000375,0.000125,46168.67957,12.22986001,0.0002648951654
142,0.010625,0.000375,0.000125,46963.44073,12.38035555,0.0002636168763
143,0.010875,0.000375,0.000125,47741.85353,12.52790827,0.0002624093399
144,0.011125,0.000375,0.000125,48504.07356,12.67254625,0.0002612676693
145,0.011375,0.000375,0.000125,49250.29345,12.81431115,0.0002601875086
146,0.011625,0.000375,0.000125,49980.74205,12.95325909,0.0002591650016
147,0.011875,0.000375,0.000125,50695.66759,13.08945243,0.0002581966675
148,0.012125,0.000375,0.000125,51395.3594,13.22296964,0.0002572794469
149,0.012375,0.000375,0.000125,52080.12498,13.3538962,0.0002564106019
150,0.012625,0.000375,0.000125,52750.28757,13.48232444,0.0002555876956
151,0.012875,0.000375,0.000125,53406.18507,13.60835314,0.0002548085606
152,0.013125,0.000375,0.000125,54048.1697,13.73208711,0.0002540712699
153,0.013375,0.000375,0.000125,54676.60904,13.85363704,0.0002533741079
154,0.013625,0.000375,0.000125,55291.88334,13.97311854,0.0002527155469
155,0.013875,0.000375,0.000125,55894.38165,14.09065098,0.0002520942279
156,0.014125,0.000375,0.000125,56484.4997,14.20635691,0.0002515089447
157,0.014375,0.000375,0.000125,57062.63936,14.32036161,0.0002509586267
158,0.014625,0.000375,0.000125,57629.20434,14.43279182,0.0002504423232
159,0.014875,0.000375,0.000125,58184.59336,14.54377413,0.0002499591953
160,0.015125,0.000375,0.000125,58729.19739,14.65343431,0.0002495085061
161,0.015375,0.000375,0.000125,59263.39941,14.76189703,0.0002490896097
162,0.015625,0.000375,0.000125,59787.57282,14.86928533,0.0002487019397
163,0.015875,0.000375,0.000125,60302.07853,14.97571982,0.0002483450022
164,0.016125,0.000375,0.000125,60807.26198,15.08131792,0.0002480183687
165,0.016375,0.000375,0.000125,61303.45027,15.18619311,0.0002477216706
166,0.016625,0.000375,0.000125,61790.94894,15.29045413,0.0002474545931
167,0.016875,0.000375,0.000125,62270.03843,15.39420407,0.0002472168712
168,0.017125,0.000375,0.000125,62740.97008,15.49753925,0.0002470082823
169,0.017375,0.000375,0.000125,63203.96255,15.60054841,0.0002468286447
170,0.017625,0.000375,0.000125,63659.19944,15.70331254,0.0002466778201
171,0.017875,0.000375,0.000125,64106.82699,15.80590482,0.000246555719
172,0.018125,0.000375,0.000125,64546.9295,15.9083861,0.0002464623216
173,0.018375,0.000375,0.000125,64979.49631,16.01079567,0.0002463976573
174,0.018625,0.000375,0.000125,65404.4613,16.11315772,0.0002463617527
175,0.018875,0.000375,0.000125,65821.67652,16.21547679,0.0002463546608
176,0.019125,0.000375,0.000125,66230.88697,16.31773294,0.0002463764821
177,0.019375,0.000375,0.000125,66631.71137,16.41987731,0.0002464273688
178,0.019625,0.000375,0.000125,67023.61905,16.52182665,0.000246507528
179,0.019875,0.000375,0.000125,67405.90014,16.62345625,0.0002466172281
180,0.020125,0.000375,0.000125,67777.62776,16.7245907,0.0002467568025
181,0.020375,0.000375,0.000125,68137.61394,16.82499329,0.0002469266579
182,0.020625,0.000375,0.000125,68484.34611,16.92435001,0.0002471272776
183,0.020875,0.000375,0.000125,68815.86605,17.02224257,0.0002473592726
184,0.021125,0.000375,0.000125,69129.47785,17.11808516,0.0002476235275
185,0.021375,0.000375,0.000125,69422.15945,17.21120451,0.0002479209038
186,0.021625,0.000375,0.000125,69689.69486,17.3006648,0.0002482528419
187,0.021875,0.000375,0.000125,69921.08885,17.38420978,0.0002486261308
188,0.022125,0.000375,0.000125,70109.20046,17.46031611,0.000249044576
189,0.022375,0.000375,0.000125,70277.8174,17.53348922,0.0002494882435
190,0.022625,0.000375,0.000125,70420.3979,17.60194202,0.0002499551628
191,0.022875,0.000375,0.000125,70528.45869,17.66327416,0.0002504418002
192,0.023125,0.000375,0.000125,70590.25591,17.71412282,0.0002509428899
193,0.023375,0.000375,0.000125,70588.69281,17.74941591,0.000251448429
194,0.023625,0.000375,0.000125,70498.53025,17.76157576,0.0002519424971
195,0.023875,0.000375,0.000125,70284.0977,17.74026491,0.0002524079485
196,0.024125,0.000375,0.000125,69886.33739,17.66693151,0.0002527952125
197,0.024375,0.000375,0.000125,69233.27452,17.52077413,0.0002530686907
198,0.024625,0.000375,0.000125,68227.18244,17.27751095,0.0002532350059
199,0.024875,0.000375,0.000125,66818.31111,16.93226903,0.0002534076176
200,0.000125,0.000625,0.000125,2500.757893,5.997844024,0.002398410515
201,0.000375,0.000625,0.000125,2586.790066,5.996778386,0.002318231566
202,0.000625,0.000625,0.000125,2695.909343,5.997013147,0.002224486207
203,0.000875,0.000625,0.000125,2822.360109,5.998578879,0.002125376865
204,0.001125,0.000625,0.000125,2962.316445,6.001486197,0.002025943652
205,0.001375,0.000625,0.000125,3113.07817,6.005727712,0.00192919271
206,0.001625,0.000625,0.000125,3272.684649,6.011283618,0.001836805028
207,0.001875,0.000625,0.000125,3439.703172,6.018130061,0.001749607382
208,0.002125,0.000625,0.000125,3613.058804,6.026240062,0.001667905337
209,0.002375,0.000625,0.000125,3791.947285,6.035585735,0.001591685032
210,0.002625,0.000625,0.000125,3975.747557,6.046137519,0.001520754885
211,0.002875,0.000625,0.000125,4163.977145,6.057857739,0.001454824925
212,0.003125,0.000625,0.000125,4356.234094,6.070699706,0.001393565996
213,0.003375,0.000625,0.000125,4552.190987,6.084631336,0.001336637973
214,0.003625,0.000625,0.000125,4751.600707,6.099619538,0.001283697834
215,0.003875,0.000625,0.000125,4954.244635,6.115628173,0.00123442192
216,0.004125,0.000625,0.000125,5159.924913,6.132619273,0.001188509402
217,0.004375,0.000625,0.000125,5368.462172,6.150553646,0.00114568259
218,0.004625,0.000625,0.000125,5579.689329,6.16939092,0.001105687173
219,0.004875,0.000625,0.000125,5793.45576,6.189091621,0.001068290132
220,0.005125,0.000625,0.000125,6009.62121,6.209622075,0.001033280112
221,0.005375,0.000625,0.000125,6228.038654,6.230941018,0.001000466016
222,0.005625,0.000625,0.000125,6448.569347,6.253007587,0.0009696736208
223,0.005875,0.000625,0.000125,6671.078178,6.275780739,0.000940744595
224,0.006125,0.000625,0.000125,6895.430146,6.299219286,0.0009135353637
225,0.006375,0.000625,0.000125,7121.489278,6.323281523,0.0008879156137
226,0.006625,0.000625,0.000125,7349.121577,6.347926631,0.0008637667189
227,0.006875,0.000625,0.000125,7578.193769,6.373113658,0.0008409805623
228,0.007125,0.000625,0.000125,7808.576032,6.398803888,0.0008194584853
229,0.007375,0.000625,0.000125,8040.138337,6.4249599,0.000799110616
230,0.007625,0.000625,0.000125,8272.744026,6.451540432,0.0007798549564
231,0.007875,0.000625,0.000125,8506.259524,6.478505774,0.0007616162846
232,0.008125,0.000625,0.000125,8740.557807,6.50581824,0.0007443252918
233,0.008375,0.000625,0.000125,8975.513817,6.533441514,0.0007279183841
234,0.008625,0.000625,0.000125,9211.011363,6.561340031,0.0007123365472
235,0.008875,0.000625,0.000125,9446.935508,6.589480874,0.0006975257605
236,0.009125,0.000625,0.000125,9683.164772,6.617829934,0.0006834366748
237,0.009375,0.000625,0.000125,9919.590889,6.646357836,0.0006700233821
238,0.009625,0.000625,0.000125,10156.11232,6.675038149,0.0006572434352
239,0.009875,0.000625,0.000125,10392.62859,6.703845451,0.0006450577341
240,0.010125,0.000625,0.000125,10629.04167,6.732755723,0.000633430175
241,0.010375,0.000625,0.000125,10865.25753,6.761746583,0.0006223273187
242,0.010625,0.000625,0.000125,11101.1867,6.790797365,0.0006117181475
243,0.010875,0.000625,0.000125,11336.74419,6.819889185,0.0006015738796
244,0.011125,0.000625,0.000125,11571.8493,6.849004859,0.000591867789
245,0.011375,0.000625,0.000125,11806.42667,6.878129213,0.0005825750164
246,0.011625,0.000625,0.000125,12040.4028,6.907247709,0.0005736724778
247,0.011875,0.000625,0.000125,12273.71181,6.936349563,0.0005651387021
248,0.012125,0.000625,0.000125,12506.29271,6.965424181,0.000556953555
249,0.012375,0.000625,0.000125,12738.08668,6.994462632,0.0005490983699
250,0.012625,0.000625,0.000125,12969.03827,7.023457302,0.0005415557541
251,0.012875,0.000625,0.000125,13199.09473,7.052402492,0.0005343095594
252,0.013125,0.000625,0.000125,13428.20665,7.081294251,0.0005273447479
253,0.013375,0.000625,0.000125,13656.32941,7.110130076,0.0005206472298
254,0.013625,0.000625,0.000125,13883.42256,7.138908711,0.0005142038052
255,0.013875,0.000625,0.000125,14109.4492,7.167630249,0.0005080021303
256,0.014125,0.000625,0.000125,14334.37566,7.196296251,0.0005020306722
257,0.014375,0.000625,0.000125,14558.17214,7.224908988,0.0004962785792
258,0.014625,0.000625,0.000125,14780.81133,7.253471234,0.0004907356621
259,0.014875,0.000625,0.000125,15002.26589,7.281986354,0.0004853924338
260,0.015125,0.000625,0.000125,15222.50821,7.310458492,0.0004802400756
261,0.015375,0.000625,0.000125,15441.51061,7.338892483,0.0004752703714
262,0.015625,0.000625,0.000125,15659.24487,7.36729357,0.0004704756602
263,0.015875,0.000625,0.000125,15875.68118,7.395667107,0.0004658488049
264,0.016125,0.000625,0.000125,16090.7871,7.424018289,0.0004613831657
265,0.016375,0.000625,0.000125,16304.52634,7.452351842,0.0004570725753
266,0.016625,0.000625,0.000125,16516.85744,7.480671647,0.0004529113166
267,0.016875,0.000625,0.000125,16727.73198,7.508980288,0.0004488941056
268,0.017125,0.000625,0.000125,16937.0929,7.537278517,0.0004450160699
269,0.017375,0.000625,0.000125,17144.87128,7.565564386,0.0004412727435
270,0.017625,0.000625,0.000125,17350.98642,7.593832971,0.0004376600148
271,0.017875,0.000625,0.000125,17555.3473,7.622075803,0.0004341740253
272,0.018125,0.000625,0.000125,17757.84011,7.650282088,0.0004308115198
273,0.018375,0.000625,0.000125,17958.30769,7.678439383,0.0004275703209
274,0.018625,0.000625,0.000125,18156.57639,7.706526067,0.0004244481945
275,0.018875,0.000625,0.000125,18352.43475,7.734510869,0.0004214433112
276,0.019125,0.000625,0.000125,18545.62505,7.762352236,0.0004185543607
277,0.019375,0.000625,0.000125,18735.83372,7.789996275,0.0004157806048
278,0.019625,0.000625,0.000125,18922.67898,7.817373895,0.0004131219423
279,0.019875,0.000625,0.000125,19105.69748,7.844398529,0.0004105790191
280,0.020125,0.000625,0.000125,19284.32702,7.870963453,0.0004081533902
281,0.020375,0.000625,0.000125,19457.88758,7.896937189,0.000405847611
282,0.020625,0.000625,0.000125,19625.54673,7.92214881,0.0004036651268
283,0.020875,0.000625,0.000125,19786.27879,7.946380731,0.0004016106724
284,0.021125,0.000625,0.000125,19938.79802,7.969349479,0.0003996905668
285,0.021375,0.000625,0.000125,20081.4959,7.99070715,0.0003979139397
286,0.021625,0.000625,0.000125,20208.98656,8.009535492,0.0003963353366
287,0.021875,0.000625,0.000125,20324.48793,8.0263782,0.0003949117059
288,0.022125,0.000625,0.000125,20433.4477,8.042179787,0.0003935791897
289,0.022375,0.000625,0.000125,20534.15118,8.056468058,0.0003923448302
290,0.022625,0.000625,0.000125,20624.23809,8.068471384,0.0003912130643
291,0.022875,0.000625,0.000125,20701.29776,8.077677393,0.0003902014979
292,0.023125,0.000625,0.000125,20761.67389,8.082986065,0.0003893224654
293,0.023375,0.000625,0.000125,20801.79739,8.083909555,0.0003886159163
294,0.023625,0.000625,0.000125,20816.27533,8.079500785,0.0003881338356
295,0.023875,0.000625,0.000125,20798.72427,8.068885427,0.0003879509783
296,0.024125,0.000625,0.000125,20743.51427,8.053284398,0.0003882314392
297,0.024375,0.000625,0.000125,20638.47399,8.030665172,0.0003891113836
298,0.024625,0.000625,0.000125,20468.36699,7.999672704,0.0003908310179
299,0.024875,0.000625,0.000125,20231.22798,7.969134214,0.000393902645
300,0.000125,0.000875,0.000125,2451.335424,5.99693143,0.002446393656
301,0.000375,0.000875,0.000125,2456.333053,5.993802526,0.002440142439
302,0.000625,0.000875,0.000125,2465.46811,5.990797595,0.002429882411
303,0.000875,0.000875,0.000125,2478.92911,5.987953049,0.002415540253
304,0.001125,0.000875,0.000125,2496.697355,5.985299322,0.002397286683
305,0.001375,0.000875,0.000125,2518.631533,5.982860492,0.002375440954
306,0.001625,0.000875,0.000125,2544.522085,5.9806538,0.002350403573
307,0.001875,0.000875,0.000125,2574.128029,5.978691671,0.002322608512
308,0.002125,0.000875,0.000125,2607.198293,5.976983095,0.002292492715
309,0.002375,0.000875,0.000125,2643.486155,5.975534687,0.002260475122
310,0.002625,0.000875,0.000125,2682.75509,5.974350276,0.002226945836
311,0.002875,0.000875,0.000125,2724.782838,5.973431436,0.002192259637
312,0.003125,0.000875,0.000125,2769.365759,5.972778101,0.002156731404
313,0.003375,0.000875,0.000125,2816.317848,5.972388776,0.002120637335
314,0.003625,0.000875,0.000125,2865.468511,5.972260972,0.002084217973
315,0.003875,0.000875,0.000125,2916.662121,5.972391117,0.002047680146
316,0.004125,0.000875,0.000125,2969.757309,5.972774806,0.002011199632
317,0.004375,0.000875,0.000125,3024.625726,5.973406973,0.001974924342
318,0.004625,0.000875,0.000125,3081.150606,5.974281968,0.001938977587
319,0.004875,0.000875,0.000125,3139.226739,5.975393903,0.001903460438
320,0.005125,0.000875,0.000125,3198.757899,5.976736641,0.001868455454
321,0.005375,0.000875,0.000125,3259.654463,5.978303414,0.001834029797
322,0.005625,0.000875,0.000125,3321.834732,5.980087227,0.001800236228
323,0.005875,0.000875,0.000125,3385.223796,5.982080978,0.001767115363
324,0.006125,0.000875,0.000125,3449.752387,5.984277369,0.001734697653
325,0.006375,0.000875,0.000125,3515.356111,5.986669004,0.001703004992
326,0.006625,0.000875,0.000125,3581.975207,5.989248377,0.00167205188
327,0.006875,0.000875,0.000125,3649.554054,5.992007936,0.001641846606
328,0.007125,0.000875,0.000125,3718.039311,5.994936972,0.001612392035
329,0.007375,0.000875,0.000125,3787.377149,5.998021545,0.00158368742
330,0.007625,0.000875,0.000125,3857.518192,6.001254398,0.001555729383
331,0.007875,0.000875,0.000125,3928.41738,6.004628189,0.001528510749
332,0.008125,0.000875,0.000125,4000.032292,6.008135324,0.001502021705
333,0.008375,0.000875,0.000125,4072.3218,6.011767911,0.001476250701
334,0.008625,0.000875,0.000125,4145.247623,6.015518831,0.001451184435
335,0.008875,0.000875,0.000125,4218.772143,6.019379789,0.001426808461
336,0.009125,0.000875,0.000125,4292.861261,6.023348505,0.001403108123
337,0.009375,0.000875,0.000125,4367.483332,6.027420617,0.001380067228
338,0.009625,0.000875,0.000125,4442.606284,6.031589482,0.001357669147
339,0.009875,0.000875,0.000125,4518.198281,6.03584858,0.001335897233
340,0.010125,0.000875,0.000125,4594.228512,6.040191623,0.001314734696
341,0.010375,0.000875,0.000125,4670.667402,6.044612563,0.001294164633
342,0.010625,0.000875,0.000125,4747.486521,6.049105433,0.001274170112
343,0.010875,0.000875,0.000125,4824.658561,6.053664689,0.001254734322
344,0.011125,0.000875,0.000125,4902.157276,6.058285237,0.00123584065
345,0.011375,0.000875,0.000125,4979.957263,6.062962155,0.001217472728
346,0.011625,0.000875,0.000125,5058.034545,6.067691066,0.001199614398
347,0.011875,0.000875,0.000125,5136.365818,6.072467609,0.001182249829
348,0.012125,0.000875,0.000125,5214.92846,6.077288301,0.001165363695
349,0.012375,0.000875,0.000125,5293.700767,6.08214935,0.001148940905
350,0.012625,0.000875,0.000125,5372.663121,6.087050083,0.001132967012
351,0.012875,0.000875,0.000125,5451.79394,6.091986607,0.001117427891
352,0.013125,0.000875,0.000125,5531.071567,6.096954502,0.00110230982
353,0.013375,0.000875,0.000125,5610.476101,6.10195108,0.001087599514
354,0.013625,0.000875,0.000125,5689.9875,6.106972273,0.001073283952
355,0.013875,0.000875,0.000125,5769.587514,6.112016711,0.001059350724
356,0.014125,0.000875,0.000125,5849.25543,6.117078201,0.001045787498
357,0.014375,0.000875,0.000125,5928.974009,6.12215543,0.001032582606
358,0.014625,0.000875,0.000125,6008.726783,6.127247844,0.001019724821
359,0.014875,0.000875,0.000125,6088.496403,6.132354577,0.001007203449
360,0.015125,0.000875,0.000125,6168.264813,6.137474731,0.0009950083075
361,0.015375,0.000875,0.000125,6248.013377,6.142607402,0.0009831296816
362,0.015625,0.000875,0.000125,6327.722665,6.147751592,0.0009715583184
363,0.015875,0.000875,0.000125,6407.372144,6.152906146,0.0009602854348
364,0.016125,0.000875,0.000125,6486.939867,6.158069699,0.0009493027261
365,0.016375,0.000875,0.000125,6566.402102,6.163240613,0.0009386023757
366,0.016625,0.000875,0.000125,6645.732912,6.168416887,0.0009281770676
367,0.016875,0.000875,0.000125,6724.90357,6.17359607,0.0009180200139
368,0.017125,0.000875,0.000125,6803.882369,6.178775117,0.0009081249178
369,0.017375,0.000875,0.000125,6882.632596,6.183950578,0.0008984862249
370,0.017625,0.000875,0.000125,6961.113319,6.189118147,0.0008890988932
371,0.017875,0.000875,0.000125,7039.279069,6.194272328,0.0008799583404
372,0.018125,0.000875,0.000125,7117.075356,6.199405671,0.0008710608447
373,0.018375,0.000875,0.000125,7194.432188,6.204508129,0.0008624041434
374,0.018625,0.000875,0.000125,7271.273468,6.209568561,0.0008539863875
375,0.018875,0.000875,0.000125,7347.509994,6.21457345,0.0008458067365
376,0.019125,0.000875,0.000125,7423.036038,6.219506124,0.0008378655434
377,0.019375,0.000875,0.000125,7497.72571,6.224345966,0.0008301645334
378,0.019625,0.000875,0.000125,7571.428195,6.229067102,0.0008227070167
379,0.019875,0.000875,0.000125,7643.962447,6.233636515,0.0008154980559
380,0.020125,0.000875,0.000125,7715.109853,6.238012451,0.0008085448645
381,0.020375,0.000875,0.000125,7784.595925,6.24212556,0.0008018560784
382,0.020625,0.000875,0.000125,7852.116149,6.245926583,0.0007954450068
383,0.020875,0.000875,0.000125,7917.280614,6.249333987,0.0007893283429
384,0.021125,0.000875,0.000125,7979.335767,6.252263774,0.0007835569221
385,0.021375,0.000875,0.000125,8037.103897,6.254553495,0.0007782098595
386,0.021625,0.000875,0.000125,8093.120286,6.256554104,0.0007730706924
387,0.021875,0.000875,0.000125,8147.117875,6.258226266,0.0007681521689
388,0.022125,0.000875,0.000125,8198.750643,6.259534993,0.0007634742494
389,0.022375,0.000875,0.000125,8247.694889,6.260575279,0.0007590696993
390,0.022625,0.000875,0.000125,8293.573174,6.26155591,0.0007549889268
391,0.022875,0.000875,0.000125,8335.641444,6.262353319,0.0007512743153
392,0.023125,0.000875,0.000125,8373.209421,6.263237307,0.0007480091554
393,0.023375,0.000875,0.000125,8404.832818,6.26374084,0.0007452546619
394,0.023625,0.000875,0.000125,8429.333069,6.264124545,0.0007431340646
395,0.023875,0.000875,0.000125,8445.493191,6.265121213,0.0007418301184
396,0.024125,0.000875,0.000125,8451.977474,6.267960429,0.000741596916
397,0.024375,0.000875,0.000125,8447.890051,6.275282989,0.0007428225214
398,0.024625,0.000875,0.000125,8429.531502,6.286567546,0.0007457789967
399,0.024875,0.000875,0.000125,8405.555093,6.319161405,0.0007517839494
400,0.000125,0.001125,0.000125,2449.087672,5.996874469,0.002448615677
401,0.000375,0.001125,0.000125,2448.403109,5.993611025,0.002447967412
402,0.000625,0.001125,0.000125,2448.151694,5.99036098,0.002446891259
403,0.000875,0.001125,0.000125,2448.489174,5.987130905,0.002445234788
404,0.001125,0.001125,0.000125,2449.554855,5.983927556,0.002442863259
405,0.001375,0.001125,0.000125,2451.467059,5.98075774,0.002439664738
406,0.001625,0.001125,0.000125,2454.321491,5.977627627,0.002435552005
407,0.001875,0.001125,0.000125,2458.191883,5.974542831,0.002430462355
408,0.002125,0.001125,0.000125,2463.131736,5.971508602,0.002424356162
409,0.002375,0.001125,0.000125,2469.176636,5.968529897,0.002417214633
410,0.002625,0.001125,0.000125,2476.346612,5.965611151,0.002409037217
411,0.002875,0.001125,0.000125,2484.648441,5.962756041,0.002399838924
412,0.003125,0.001125,0.000125,2494.07827,5.959967894,0.002389647497
413,0.003375,0.001125,0.000125,2504.623814,5.957249792,0.002378500819
414,0.003625,0.001125,0.000125,2516.265866,5.954604238,0.002366444785
415,0.003875,0.001125,0.000125,2528.979742,5.95203302,0.002353531316
416,0.004125,0.001125,0.000125,2542.736692,5.949537357,0.002339816535
417,0.004375,0.001125,0.000125,2557.5051,5.947118052,0.002325359215
418,0.004625,0.001125,0.000125,2573.251419,5.94477554,0.002310219474
419,0.004875,0.001125,0.000125,2589.941007,5.942509963,0.002294457653
420,0.005125,0.001125,0.000125,2607.538652,5.940321173,0.002278133507
421,0.005375,0.001125,0.000125,2626.008858,5.938208657,0.002261305646
422,0.005625,0.001125,0.000125,2645.316384,5.936171647,0.002244030878
423,0.005875,0.001125,0.000125,2665.426571,5.934209179,0.002226363781
424,0.006125,0.001125,0.000125,2686.305585,5.932320141,0.002208356404
425,0.006375,0.001125,0.000125,2707.920443,5.930503197,0.002190058135
426,0.006625,0.001125,0.000125,2730.23925,5.928756913,0.002171515523