cellI,x,y,z,S,omega,k,nut
0,0.000125,0,0.000125,6.25e-08,99678.53782,7.12568397,9.420189198e-06
1,0.000375,0,0.000125,6.25e-08,112324.0388,8.686903391,1.055896635e-05
2,0.000625,0,0.000125,6.25e-08,124093.0269,10.234617,1.160603558e-05
3,0.000875,0,0.000125,6.25e-08,135095.737,11.75810571,1.257507457e-05
4,0.001125,0,0.000125,6.25e-08,145408.1257,13.24865675,1.347552206e-05
5,0.001375,0,0.000125,6.25e-08,155086.417,14.6992666,1.431433119e-05
6,0.001625,0,0.000125,6.25e-08,164174.5491,16.10435867,1.509688069e-05
7,0.001875,0,0.000125,6.25e-08,172708.7708,17.45961234,1.5827529e-05
8,0.002125,0,0.000125,6.25e-08,180720.3968,18.76181509,1.650994972e-05
9,0.002375,0,0.000125,6.25e-08,188237.4108,20.00871398,1.714733422e-05
10,0.002625,0,0.000125,6.25e-08,195285.4441,21.19887849,1.774252029e-05
11,0.002875,0,0.000125,6.25e-08,201888.3949,22.33157827,1.82980774e-05
12,0.003125,0,0.000125,6.25e-08,208068.8342,23.40667605,1.881636508e-05
13,0.003375,0,0.000125,6.25e-08,213848.2713,24.42453379,1.929957375e-05
14,0.003625,0,0.000125,6.25e-08,219247.3174,25.38592805,1.974975264e-05
15,0.003875,0,0.000125,6.25e-08,224285.7851,26.29197512,2.016882947e-05
16,0.004125,0,0.000125,6.25e-08,228982.7506,27.14406554,2.055862471e-05
17,0.004375,0,0.000125,6.25e-08,233356.5936,27.94380728,2.092086228e-05
18,0.004625,0,0.000125,6.25e-08,237425.0164,28.69297579,2.125717721e-05
19,0.004875,0,0.000125,6.25e-08,241205.0515,29.39347029,2.156912137e-05
20,0.005125,0,0.000125,6.25e-08,244713.0663,30.04727642,2.185816806e-05
21,0.005375,0,0.000125,6.25e-08,247964.7673,30.65643478,2.212571593e-05
22,0.005625,0,0.000125,6.25e-08,250975.2017,31.22301378,2.237309214e-05
23,0.005875,0,0.000125,6.25e-08,253758.7573,31.74908635,2.260155489e-05
24,0.006125,0,0.000125,6.25e-08,256329.1676,32.23671096,2.281229605e-05
25,0.006375,0,0.000125,6.25e-08,258699.5206,32.68791658,2.300644379e-05
26,0.006625,0,0.000125,6.25e-08,260882.2704,33.10469034,2.318506503e-05
27,0.006875,0,0.000125,6.25e-08,262889.2478,33.48896745,2.334916783e-05
28,0.007125,0,0.000125,6.25e-08,264731.6742,33.84262332,2.349970357e-05
29,0.007375,0,0.000125,6.25e-08,266420.1769,34.16746768,2.363756929e-05
30,0.007625,0,0.000125,6.25e-08,267964.8077,34.46524056,2.376361004e-05
31,0.007875,0,0.000125,6.25e-08,269375.0624,34.73760958,2.387862128e-05
32,0.008125,0,0.000125,6.25e-08,270659.8999,34.98616822,2.398335103e-05
33,0.008375,0,0.000125,6.25e-08,271827.7615,35.21243482,2.407850202e-05
34,0.008625,0,0.000125,6.25e-08,272886.591,35.41785245,2.416473377e-05
35,0.008875,0,0.000125,6.25e-08,273843.8556,35.60378966,2.424266479e-05
36,0.009125,0,0.000125,6.25e-08,274706.5689,35.77154203,2.431287469e-05
37,0.009375,0,0.000125,6.25e-08,275481.3129,35.92233396,2.437590635e-05
38,0.009625,0,0.000125,6.25e-08,276174.2577,36.05732048,2.443226776e-05
39,0.009875,0,0.000125,6.25e-08,276791.1822,36.17758945,2.44824339e-05
40,0.010125,0,0.000125,6.25e-08,277337.4951,36.28416421,2.45268487e-05
41,0.010375,0,0.000125,6.25e-08,277818.2561,36.37800639,2.456592684e-05
42,0.010625,0,0.000125,6.25e-08,278238.1952,36.46001864,2.460005554e-05
43,0.010875,0,0.000125,6.25e-08,278601.7316,36.53104735,2.462959613e-05
44,0.011125,0,0.000125,6.25e-08,278912.9913,36.5918854,2.465488567e-05
45,0.011375,0,0.000125,6.25e-08,279175.825,36.64327491,2.467623842e-05
46,0.011625,0,0.000125,6.25e-08,279393.8243,36.68590993,2.469394726e-05
47,0.011875,0,0.000125,6.25e-08,279570.338,36.72043911,2.470828505e-05
48,0.012125,0,0.000125,6.25e-08,279708.487,36.74746826,2.471950593e-05
49,0.012375,0,0.000125,6.25e-08,279811.1784,36.76756279,2.472784647e-05
50,0.012625,0,0.000125,6.25e-08,279881.1199,36.78125017,2.47335269e-05
51,0.012875,0,0.000125,6.25e-08,279920.8327,36.78902236,2.473675219e-05
52,0.013125,0,0.000125,6.25e-08,279932.6644,36.791338,2.47377131e-05
53,0.013375,0,0.000125,6.25e-08,279918.8004,36.78862461,2.473658714e-05
54,0.013625,0,0.000125,6.25e-08,279881.2747,36.78128047,2.473353948e-05
55,0.013875,0,0.000125,6.25e-08,279821.98,36.76967656,2.472872375e-05
56,0.014125,0,0.000125,6.25e-08,279742.6775,36.75415835,2.472228289e-05
57,0.014375,0,0.000125,6.25e-08,279645.0057,36.73504749,2.471434986e-05
58,0.014625,0,0.000125,6.25e-08,279530.4894,36.71264343,2.470504832e-05
59,0.014875,0,0.000125,6.25e-08,279400.5476,36.687225,2.469449339e-05
60,0.015125,0,0.000125,6.25e-08,279256.5017,36.65905197,2.468279224e-05
61,0.015375,0,0.000125,6.25e-08,279099.5834,36.62836651,2.467004473e-05
62,0.015625,0,0.000125,6.25e-08,278930.9417,36.5953946,2.465634404e-05
63,0.015875,0,0.000125,6.25e-08,278751.6497,36.56034728,2.464177718e-05
64,0.016125,0,0.000125,6.25e-08,278562.7109,36.52342197,2.462642553e-05
65,0.016375,0,0.000125,6.25e-08,278365.0657,36.4848036,2.461036534e-05
66,0.016625,0,0.000125,6.25e-08,278159.5974,36.44466584,2.459366824e-05
67,0.016875,0,0.000125,6.25e-08,277947.1378,36.40317224,2.457640169e-05
68,0.017125,0,0.000125,6.25e-08,277728.4733,36.36047731,2.455862946e-05
69,0.017375,0,0.000125,6.25e-08,277504.3503,36.31672766,2.454041212e-05
70,0.017625,0,0.000125,6.25e-08,277275.4809,36.2720631,2.452180744e-05
71,0.017875,0,0.000125,6.25e-08,277042.5485,36.22661769,2.450287088e-05
72,0.018125,0,0.000125,6.25e-08,276806.2143,36.18052101,2.448365612e-05
73,0.018375,0,0.000125,6.25e-08,276567.1254,36.13389983,2.44642157e-05
74,0.018625,0,0.000125,6.25e-08,276325.9235,36.08687966,2.444460174e-05
75,0.018875,0,0.000125,6.25e-08,276083.2503,36.03958592,2.442486639e-05
76,0.019125,0,0.000125,6.25e-08,275839.7554,35.99214542,2.440506245e-05
77,0.019375,0,0.000125,6.25e-08,275596.1062,35.94468832,2.438524418e-05
78,0.019625,0,0.000125,6.25e-08,275352.9997,35.89735034,2.436546828e-05
79,0.019875,0,0.000125,6.25e-08,275111.1754,35.85027536,2.434579493e-05
80,0.020125,0,0.000125,6.25e-08,274871.4306,35.80361835,2.432628902e-05
81,0.020375,0,0.000125,6.25e-08,274634.6385,35.75754883,2.430702166e-05
82,0.020625,0,0.000125,6.25e-08,274401.7692,35.71225504,2.428807184e-05
83,0.020875,0,0.000125,6.25e-08,274173.9192,35.66794952,2.426952889e-05
84,0.021125,0,0.000125,6.25e-08,273952.3515,35.62487703,2.425149571e-05
85,0.021375,0,0.000125,6.25e-08,273738.5398,35.58332297,2.423409237e-05
86,0.021625,0,0.000125,6.25e-08,273534.2239,35.54362427,2.421746067e-05
87,0.021875,0,0.000125,6.25e-08,273341.4036,35.50616798,2.420176357e-05
88,0.022125,0,0.000125,6.25e-08,273157.3185,35.47041656,2.418677654e-05
89,0.022375,0,0.000125,6.25e-08,272967.5041,35.43356066,2.417132199e-05
90,0.022625,0,0.000125,6.25e-08,272770.8559,35.39538664,2.415530989e-05
91,0.022875,0,0.000125,6.25e-08,272567.8405,35.355986,2.41387781e-05
92,0.023125,0,0.000125,6.25e-08,272357.1291,35.31510188,2.41216183e-05
93,0.023375,0,0.000125,6.25e-08,272135.4099,35.27209308,2.41035606e-05
94,0.023625,0,0.000125,6.25e-08,271895.6143,35.22559073,2.408402901e-05
95,0.023875,0,0.000125,6.25e-08,271624.6531,35.17306076,2.406195684e-05
96,0.024125,0,0.000125,6.25e-08,271294.5522,35.10908884,2.403506419e-05
97,0.024375,0,0.000125,6.25e-08,270860.8044,35.02506953,2.399972259e-05
98,0.024625,0,0.000125,6.25e-08,270155.3669,34.88851704,2.394223154e-05
99,0.024875,0,0.000125,6.25e-08,269136.9188,34.69158246,2.385920413e-05
21600,0.125125,0,0.000125,6.25e-08,322134.6667,45.22569557,2.81404147e-05
21601,0.125375,0,0.000125,6.25e-08,316214.2036,44.02345951,2.76658932e-05
21602,0.125625,0,0.000125,6.25e-08,307282.6972,42.22056801,2.694834758e-05
21603,0.125875,0,0.000125,6.25e-08,297111.6933,40.18451627,2.612866486e-05
21604,0.126125,0,0.000125,6.25e-08,287085.8285,38.19684186,2.531790885e-05
21605,0.126375,0,0.000125,6.25e-08,277455.2924,36.30715287,2.453642435e-05
21606,0.126625,0,0.000125,6.25e-08,268382.1636,34.54579684,2.379765327e-05
21607,0.126875,0,0.000125,6.25e-08,260076.5068,32.9506965,2.311914469e-05
21608,0.127125,0,0.000125,6.25e-08,252685.1264,31.54593071,2.251346621e-05
21609,0.127375,0,0.000125,6.25e-08,246247.9454,30.33444342,2.198450205e-05
21610,0.127625,0,0.000125,6.25e-08,240757.0574,29.31023139,2.153217744e-05
21611,0.127875,0,0.000125,6.25e-08,236570.7812,28.53526069,2.118661165e-05
21612,0.128125,0,0.000125,6.25e-08,233710.4569,28.00876883,2.095013811e-05
21613,0.128375,0,0.000125,6.25e-08,231985.7296,27.6925101,2.080740458e-05
21614,0.128625,0,0.000125,6.25e-08,231175.6422,27.54428368,2.074032631e-05
21615,0.128875,0,0.000125,6.25e-08,231098.1855,27.53012167,2.073391134e-05
21616,0.129125,0,0.000125,6.25e-08,231573.1088,27.61698502,2.077324106e-05
21617,0.129375,0,0.000125,6.25e-08,232411.1489,27.77043296,2.084262121e-05
21618,0.129625,0,0.000125,6.25e-08,233489.7026,27.96823868,2.09318752e-05
21619,0.129875,0,0.000125,6.25e-08,234715.1143,28.19341049,2.103323064e-05
21620,0.130125,0,0.000125,6.25e-08,236010.6063,28.43195598,2.114032324e-05
21621,0.130375,0,0.000125,6.25e-08,237318.5732,28.67331157,2.124838569e-05
21622,0.130625,0,0.000125,6.25e-08,238596.969,28.9097043,2.135394584e-05
21623,0.130875,0,0.000125,6.25e-08,239816.6952,29.13569939,2.145460729e-05
21624,0.131125,0,0.000125,6.25e-08,240958.9754,29.34774123,2.154882954e-05
21625,0.131375,0,0.000125,6.25e-08,242010.5837,29.54328781,2.163553199e-05
21626,0.131625,0,0.000125,6.25e-08,242964.566,29.72095764,2.1714152e-05
21627,0.131875,0,0.000125,6.25e-08,243820.2342,29.88053999,2.178464275e-05
21628,0.132125,0,0.000125,6.25e-08,244577.1282,30.02187533,2.184697526e-05
21629,0.132375,0,0.000125,6.25e-08,245238.5096,30.14550887,2.190142582e-05
21630,0.132625,0,0.000125,6.25e-08,245808.9576,30.25224346,2.194837786e-05
21631,0.132875,0,0.000125,6.25e-08,246293.7961,30.34303205,2.198827477e-05
21632,0.133125,0,0.000125,6.25e-08,246698.8196,30.41892547,2.202159758e-05
21633,0.133375,0,0.000125,6.25e-08,247030.0584,30.48102726,2.204884569e-05
21634,0.133625,0,0.000125,6.25e-08,247293.5697,30.53045316,2.207051981e-05
21635,0.133875,0,0.000125,6.25e-08,247495.2925,30.56830269,2.208711019e-05
21636,0.134125,0,0.000125,6.25e-08,247641.1162,30.59567088,2.209910242e-05
21637,0.134375,0,0.000125,6.25e-08,247735.9401,30.61347057,2.210690004e-05
21638,0.134625,0,0.000125,6.25e-08,247784.4051,30.62256907,2.211088528e-05
21639,0.134875,0,0.000125,6.25e-08,247791.4257,30.62388713,2.211146251e-05
21640,0.135125,0,0.000125,6.25e-08,247761.6865,30.61830395,2.210901703e-05
21641,0.135375,0,0.000125,6.25e-08,247699.5306,30.60663572,2.21039059e-05
21642,0.135625,0,0.000125,6.25e-08,247608.8179,30.58960862,2.209644632e-05
21643,0.135875,0,0.000125,6.25e-08,247492.9043,30.56785453,2.20869139e-05
21644,0.136125,0,0.000125,6.25e-08,247355.3058,30.54203559,2.207559756e-05
21645,0.136375,0,0.000125,6.25e-08,247199.324,30.51277359,2.206276843e-05
21646,0.136625,0,0.000125,6.25e-08,247027.4969,30.4805469,2.204863505e-05
21647,0.136875,0,0.000125,6.25e-08,246842.1659,30.44579676,2.203338982e-05
21648,0.137125,0,0.000125,6.25e-08,246645.493,30.40893048,2.201721041e-05
21649,0.137375,0,0.000125,6.25e-08,246439.5123,30.37033109,2.200026399e-05
21650,0.137625,0,0.000125,6.25e-08,246225.7545,30.3302869,2.198267624e-05
21651,0.137875,0,0.000125,6.25e-08,246005.8282,30.28910055,2.19645793e-05
21652,0.138125,0,0.000125,6.25e-08,245781.1771,30.24704341,2.194609172e-05
21653,0.138375,0,0.000125,6.25e-08,245553.073,30.2043544,2.19273181e-05
21654,0.138625,0,0.000125,6.25e-08,245322.6465,30.16124568,2.190835148e-05
21655,0.138875,0,0.000125,6.25e-08,245090.9098,30.11790696,2.188927522e-05
21656,0.139125,0,0.000125,6.25e-08,244858.7395,30.07450241,2.187016155e-05
21657,0.139375,0,0.000125,6.25e-08,244626.9723,30.03118848,2.185107933e-05
21658,0.139625,0,0.000125,6.25e-08,244396.352,29.98810403,2.183208973e-05
21659,0.139875,0,0.000125,6.25e-08,244167.5096,29.9453667,2.181324465e-05
21660,0.140125,0,0.000125,6.25e-08,243940.9783,29.90307567,2.179458798e-05
21661,0.140375,0,0.000125,6.25e-08,243717.2114,29.86131511,2.177615713e-05
21662,0.140625,0,0.000125,6.25e-08,243496.6078,29.82015893,2.17579851e-05
21663,0.140875,0,0.000125,6.25e-08,243279.5253,29.77967323,2.174010151e-05
21664,0.141125,0,0.000125,6.25e-08,243066.2802,29.73991638,2.172253254e-05
21665,0.141375,0,0.000125,6.25e-08,242857.1201,29.7009338,2.170529868e-05
21666,0.141625,0,0.000125,6.25e-08,242652.2651,29.66276578,2.168841812e-05
21667,0.141875,0,0.000125,6.25e-08,242451.8971,29.62544546,2.167190588e-05
21668,0.142125,0,0.000125,6.25e-08,242256.1522,29.58899743,2.165577322e-05
21669,0.142375,0,0.000125,6.25e-08,242065.1284,29.55343914,2.164002827e-05
21670,0.142625,0,0.000125,6.25e-08,241878.8678,29.51877767,2.162467461e-05
21671,0.142875,0,0.000125,6.25e-08,241697.4067,29.48501898,2.160971536e-05
21672,0.143125,0,0.000125,6.25e-08,241520.776,29.45216811,2.159515326e-05
21673,0.143375,0,0.000125,6.25e-08,241349.0036,29.4202295,2.158099074e-05
21674,0.143625,0,0.000125,6.25e-08,241182.102,29.38920477,2.156722891e-05
21675,0.143875,0,0.000125,6.25e-08,241020.0677,29.35909256,2.155386756e-05
21676,0.144125,0,0.000125,6.25e-08,240862.878,29.32988795,2.154090481e-05
21677,0.144375,0,0.000125,6.25e-08,240710.4904,29.30158241,2.152833719e-05
21678,0.144625,0,0.000125,6.25e-08,240562.8439,29.274164,2.151615972e-05
21679,0.144875,0,0.000125,6.25e-08,240419.8657,29.24761857,2.150436645e-05
21680,0.145125,0,0.000125,6.25e-08,240281.4757,29.22193067,2.149295088e-05
21681,0.145375,0,0.000125,6.25e-08,240147.5944,29.19708503,2.148190659e-05
21682,0.145625,0,0.000125,6.25e-08,240018.143,29.17306647,2.147122717e-05
21683,0.145875,0,0.000125,6.25e-08,239893.0466,29.14986061,2.146090655e-05
21684,0.146125,0,0.000125,6.25e-08,239772.228,29.12745265,2.145093841e-05
21685,0.146375,0,0.000125,6.25e-08,239655.6095,29.10582775,2.144131638e-05
21686,0.146625,0,0.000125,6.25e-08,239543.1039,29.0849693,2.143203325e-05
21687,0.146875,0,0.000125,6.25e-08,239434.6204,29.06486008,2.142308154e-05
21688,0.147125,0,0.000125,6.25e-08,239330.0568,29.04548076,2.141445283e-05
21689,0.147375,0,0.000125,6.25e-08,239229.314,29.02681261,2.140613896e-05
21690,0.147625,0,0.000125,6.25e-08,239132.285,29.00883547,2.139813117e-05
21691,0.147875,0,0.000125,6.25e-08,239038.8768,28.9915318,2.139042187e-05
21692,0.148125,0,0.000125,6.25e-08,238948.9838,28.97488176,2.138300244e-05
21693,0.148375,0,0.000125,6.25e-08,238862.5398,28.95887279,2.137586747e-05
21694,0.148625,0,0.000125,6.25e-08,238779.3755,28.94347327,2.136900303e-05
21695,0.148875,0,0.000125,6.25e-08,238699.5311,28.92869044,2.136241244e-05
21696,0.149125,0,0.000125,6.25e-08,238622.4879,28.91442803,2.13560529e-05
21697,0.149375,0,0.000125,6.25e-08,238548.728,28.90077507,2.134996409e-05
21698,0.149625,0,0.000125,6.25e-08,238476.8182,28.88746611,2.134402773e-05
21699,0.149875,0,0.000125,6.25e-08,238410.953,28.87527723,2.133858988e-05
3900,0.000125,0.01,0.000125,6.25e-08,99678.53782,7.12568397,9.420189198e-06
3901,0.000375,0.01,0.000125,6.25e-08,112324.0388,8.686903391,1.055896635e-05
3902,0.000625,0.01,0.000125,6.25e-08,124093.0269,10.234617,1.160603558e-05
3903,0.000875,0.01,0.000125,6.25e-08,135095.737,11.75810571,1.257507457e-05
3904,0.001125,0.01,0.000125,6.25e-08,145408.1257,13.24865675,1.347552206e-05
3905,0.001375,0.01,0.000125,6.25e-08,155086.417,14.6992666,1.431433119e-05
3906,0.001625,0.01,0.000125,6.25e-08,164174.5491,16.10435867,1.509688069e-05
3907,0.001875,0.01,0.000125,6.25e-08,172708.7708,17.45961234,1.5827529e-05
3908,0.002125,0.01,0.000125,6.25e-08,180720.3968,18.76181509,1.650994972e-05
3909,0.002375,0.01,0.000125,6.25e-08,188237.4108,20.00871398,1.714733422e-05
3910,0.002625,0.01,0.000125,6.25e-08,195285.4441,21.19887849,1.774252029e-05
3911,0.002875,0.01,0.000125,6.25e-08,201888.3949,22.33157827,1.82980774e-05
3912,0.003125,0.01,0.000125,6.25e-08,208068.8342,23.40667605,1.881636508e-05
3913,0.003375,0.01,0.000125,6.25e-08,213848.2713,24.42453379,1.929957375e-05
3914,0.003625,0.01,0.000125,6.25e-08,219247.3174,25.38592805,1.974975264e-05
3915,0.003875,0.01,0.000125,6.25e-08,224285.785,26.29197512,2.016882947e-05
3916,0.004125,0.01,0.000125,6.25e-08,228982.7506,27.14406554,2.055862471e-05
3917,0.004375,0.01,0.000125,6.25e-08,233356.5936,27.94380728,2.092086228e-05
3918,0.004625,0.01,0.000125,6.25e-08,237425.0164,28.69297579,2.125717721e-05
3919,0.004875,0.01,0.000125,6.25e-08,241205.0515,29.39347029,2.156912137e-05
3920,0.005125,0.01,0.000125,6.25e-08,244713.0663,30.04727642,2.185816806e-05
3921,0.005375,0.01,0.000125,6.25e-08,247964.7673,30.65643478,2.212571593e-05
3922,0.005625,0.01,0.000125,6.25e-08,250975.2017,31.22301378,2.237309214e-05
3923,0.005875,0.01,0.000125,6.25e-08,253758.7573,31.74908635,2.260155489e-05
3924,0.006125,0.01,0.000125,6.25e-08,256329.1676,32.23671096,2.281229605e-05
3925,0.006375,0.01,0.000125,6.25e-08,258699.5206,32.68791658,2.300644379e-05
3926,0.006625,0.01,0.000125,6.25e-08,260882.2704,33.10469034,2.318506503e-05
3927,0.006875,0.01,0.000125,6.25e-08,262889.2478,33.48896745,2.334916783e-05
3928,0.007125,0.01,0.000125,6.25e-08,264731.6742,33.84262332,2.349970357e-05
3929,0.007375,0.01,0.000125,6.25e-08,266420.1769,34.16746768,2.363756928e-05
3930,0.007625,0.01,0.000125,6.25e-08,267964.8077,34.46524056,2.376361004e-05
3931,0.007875,0.01,0.000125,6.25e-08,269375.0624,34.73760958,2.387862128e-05
3932,0.008125,0.01,0.000125,6.25e-08,270659.8999,34.98616822,2.398335103e-05
3933,0.008375,0.01,0.000125,6.25e-08,271827.7615,35.21243482,2.407850201e-05
3934,0.008625,0.01,0.000125,6.25e-08,272886.591,35.41785245,2.416473377e-05
3935,0.008875,0.01,0.000125,6.25e-08,273843.8556,35.60378965,2.424266479e-05
3936,0.009125,0.01,0.000125,6.25e-08,274706.5689,35.77154203,2.431287469e-05
3937,0.009375,0.01,0.000125,6.25e-08,275481.3129,35.92233396,2.437590635e-05
3938,0.009625,0.01,0.000125,6.25e-08,276174.2577,36.05732048,2.443226776e-05
3939,0.009875,0.01,0.000125,6.25e-08,276791.1822,36.17758945,2.44824339e-05
3940,0.010125,0.01,0.000125,6.25e-08,277337.4951,36.28416421,2.45268487e-05
3941,0.010375,0.01,0.000125,6.25e-08,277818.2561,36.37800639,2.456592684e-05
3942,0.010625,0.01,0.000125,6.25e-08,278238.1952,36.46001864,2.460005554e-05
3943,0.010875,0.01,0.000125,6.25e-08,278601.7316,36.53104735,2.462959613e-05
3944,0.011125,0.01,0.000125,6.25e-08,278912.9913,36.5918854,2.465488567e-05
3945,0.011375,0.01,0.000125,6.25e-08,279175.825,36.64327491,2.467623842e-05
3946,0.011625,0.01,0.000125,6.25e-08,279393.8243,36.68590993,2.469394726e-05
3947,0.011875,0.01,0.000125,6.25e-08,279570.338,36.72043911,2.470828505e-05
3948,0.012125,0.01,0.000125,6.25e-08,279708.487,36.74746826,2.471950593e-05
3949,0.012375,0.01,0.000125,6.25e-08,279811.1784,36.76756279,2.472784647e-05
3950,0.012625,0.01,0.000125,6.25e-08,279881.1199,36.78125017,2.47335269e-05
3951,0.012875,0.01,0.000125,6.25e-08,279920.8327,36.78902236,2.473675219e-05
3952,0.013125,0.01,0.000125,6.25e-08,279932.6644,36.791338,2.47377131e-05
3953,0.013375,0.01,0.000125,6.25e-08,279918.8004,36.78862461,2.473658714e-05
3954,0.013625,0.01,0.000125,6.25e-08,279881.2747,36.78128047,2.473353948e-05
3955,0.013875,0.01,0.000125,6.25e-08,279821.98,36.76967656,2.472872375e-05
3956,0.014125,0.01,0.000125,6.25e-08,279742.6775,36.75415835,2.472228289e-05
3957,0.014375,0.01,0.000125,6.25e-08,279645.0057,36.73504749,2.471434986e-05
3958,0.014625,0.01,0.000125,6.25e-08,279530.4894,36.71264343,2.470504832e-05
3959,0.014875,0.01,0.000125,6.25e-08,279400.5476,36.687225,2.469449339e-05
3960,0.015125,0.01,0.000125,6.25e-08,279256.5017,36.65905197,2.468279224e-05
3961,0.015375,0.01,0.000125,6.25e-08,279099.5834,36.62836651,2.467004473e-05
3962,0.015625,0.01,0.000125,6.25e-08,278930.9417,36.5953946,2.465634404e-05
3963,0.015875,0.01,0.000125,6.25e-08,278751.6496,36.56034728,2.464177718e-05
3964,0.016125,0.01,0.000125,6.25e-08,278562.7109,36.52342197,2.462642553e-05
3965,0.016375,0.01,0.000125,6.25e-08,278365.0657,36.4848036,2.461036534e-05
3966,0.016625,0.01,0.000125,6.25e-08,278159.5974,36.44466584,2.459366824e-05
3967,0.016875,0.01,0.000125,6.25e-08,277947.1378,36.40317224,2.457640169e-05
3968,0.017125,0.01,0.000125,6.25e-08,277728.4733,36.36047731,2.455862946e-05
3969,0.017375,0.01,0.000125,6.25e-08,277504.3503,36.31672766,2.454041212e-05
3970,0.017625,0.01,0.000125,6.25e-08,277275.4809,36.2720631,2.452180744e-05
3971,0.017875,0.01,0.000125,6.25e-08,277042.5485,36.22661769,2.450287088e-05
3972,0.018125,0.01,0.000125,6.25e-08,276806.2143,36.18052101,2.448365612e-05
3973,0.018375,0.01,0.000125,6.25e-08,276567.1254,36.13389983,2.44642157e-05
3974,0.018625,0.01,0.000125,6.25e-08,276325.9235,36.08687966,2.444460174e-05
3975,0.018875,0.01,0.000125,6.25e-08,276083.2503,36.03958592,2.442486639e-05
3976,0.019125,0.01,0.000125,6.25e-08,275839.7554,35.99214542,2.440506245e-05
3977,0.019375,0.01,0.000125,6.25e-08,275596.1062,35.94468832,2.438524418e-05
3978,0.019625,0.01,0.000125,6.25e-08,275352.9997,35.89735034,2.436546828e-05
3979,0.019875,0.01,0.000125,6.25e-08,275111.1754,35.85027536,2.434579493e-05
3980,0.020125,0.01,0.000125,6.25e-08,274871.4306,35.80361835,2.432628902e-05
3981,0.020375,0.01,0.000125,6.25e-08,274634.6385,35.75754883,2.430702166e-05
3982,0.020625,0.01,0.000125,6.25e-08,274401.7692,35.71225504,2.428807184e-05
3983,0.020875,0.01,0.000125,6.25e-08,274173.9192,35.66794952,2.426952889e-05
3984,0.021125,0.01,0.000125,6.25e-08,273952.3515,35.62487703,2.425149571e-05
3985,0.021375,0.01,0.000125,6.25e-08,273738.5398,35.58332298,2.423409237e-05
3986,0.021625,0.01,0.000125,6.25e-08,273534.2239,35.54362427,2.421746067e-05
3987,0.021875,0.01,0.000125,6.25e-08,273341.4036,35.50616798,2.420176357e-05
3988,0.022125,0.01,0.000125,6.25e-08,273157.3185,35.47041656,2.418677654e-05
3989,0.022375,0.01,0.000125,6.25e-08,272967.5041,35.43356066,2.417132199e-05
3990,0.022625,0.01,0.000125,6.25e-08,272770.8559,35.39538664,2.415530989e-05
3991,0.022875,0.01,0.000125,6.25e-08,272567.8405,35.355986,2.41387781e-05
3992,0.023125,0.01,0.000125,6.25e-08,272357.1291,35.31510188,2.41216183e-05
3993,0.023375,0.01,0.000125,6.25e-08,272135.4099,35.27209308,2.41035606e-05
3994,0.023625,0.01,0.000125,6.25e-08,271895.6143,35.22559074,2.408402901e-05
3995,0.023875,0.01,0.000125,6.25e-08,271624.6531,35.17306076,2.406195684e-05
3996,0.024125,0.01,0.000125,6.25e-08,271294.5522,35.10908884,2.403506419e-05
3997,0.024375,0.01,0.000125,6.25e-08,270860.8044,35.02506953,2.399972259e-05
3998,0.024625,0.01,0.000125,6.25e-08,270155.3669,34.88851704,2.394223154e-05
3999,0.024875,0.01,0.000125,6.25e-08,269136.9188,34.69158246,2.385920413e-05
20000,0.025,0.01011211771,0.000125,5.60588575e-08,253815.9784,31.75992253,2.260624865e-05
20400,0.025,0.01033635315,0.000125,5.605886e-08,307391.1686,37.95032298,2.207085006e-05
20400,0.025125,0.01044847087,0.000125,6.25e-08,307391.1686,37.95032298,2.207085006e-05
20401,0.025375,0.01044847087,0.000125,6.25e-08,373621.0065,50.80969769,2.64084704e-05
20402,0.025625,0.01044847087,0.000125,6.25e-08,444100.9688,65.21068931,3.094007474e-05
20403,0.025875,0.01044847087,0.000125,6.25e-08,491973.0815,75.2461263,3.397683669e-05
20404,0.026125,0.01044847087,0.000125,6.25e-08,511120.1029,79.29241263,3.518316052e-05
20405,0.026375,0.01044847087,0.000125,6.25e-08,505750.3384,78.15636494,3.484530293e-05
20406,0.026625,0.01044847087,0.000125,6.25e-08,494697.4077,75.82102006,3.414875694e-05
20407,0.026875,0.01044847087,0.000125,6.25e-08,481692.4855,73.07970278,3.332724109e-05
20408,0.027125,0.01044847087,0.000125,6.25e-08,467824.9432,70.16610988,3.244882826e-05
20409,0.027375,0.01044847087,0.000125,6.25e-08,453624.0444,67.19492156,3.154663796e-05
20410,0.027625,0.01044847087,0.000125,6.25e-08,439701.6891,64.29653292,3.065943504e-05
20411,0.027875,0.01044847087,0.000125,6.25e-08,426581.4215,61.58038739,2.98207959e-05
20412,0.028125,0.01044847087,0.000125,6.25e-08,414395.9582,59.07282371,2.903961198e-05
20413,0.028375,0.01044847087,0.000125,6.25e-08,403039.0236,56.75031413,2.830948255e-05
20414,0.028625,0.01044847087,0.000125,6.25e-08,392472.8438,54.60336815,2.762834347e-05
20415,0.028875,0.01044847087,0.000125,6.25e-08,382692.9178,52.62910101,2.699625253e-05
20416,0.029125,0.01044847087,0.000125,6.25e-08,373676.1217,50.8207155,2.641204623e-05
20417,0.029375,0.01044847087,0.000125,6.25e-08,365377.8327,49.16712283,2.587313961e-05
20418,0.029625,0.01044847087,0.000125,6.25e-08,357744.9349,47.6556965,2.537635444e-05
20419,0.029875,0.01044847087,0.000125,6.25e-08,350723.6137,46.27389236,2.491842728e-05
20420,0.030125,0.01044847087,0.000125,6.25e-08,344261.5707,45.00970671,2.449615778e-05
20421,0.030375,0.01044847087,0.000125,6.25e-08,338309.1178,43.85188246,2.41064768e-05
20422,0.030625,0.01044847087,0.000125,6.25e-08,332819.9729,42.790056,2.374650833e-05
20423,0.030875,0.01044847087,0.000125,6.25e-08,327751.767,41.81483493,2.341360795e-05
20424,0.031125,0.01044847087,0.000125,6.25e-08,323066.0155,40.91776447,2.310536208e-05
20425,0.031375,0.01044847087,0.000125,6.25e-08,318728.0229,40.09128484,2.28195864e-05
20426,0.031625,0.01044847087,0.000125,6.25e-08,314706.5783,39.32864856,2.255430868e-05
20427,0.031875,0.01044847087,0.000125,6.25e-08,310973.7328,38.62385699,2.230775782e-05
20428,0.032125,0.01044847087,0.000125,6.25e-08,307504.4447,37.97157465,2.207834424e-05
20429,0.032375,0.01044847087,0.000125,6.25e-08,304276.525,37.36709679,2.18646538e-05
20430,0.032625,0.01044847087,0.000125,6.25e-08,301269.8777,36.80619347,2.166540118e-05
20431,0.032875,0.01044847087,0.000125,6.25e-08,298466.5132,36.28510336,2.147943621e-05
20432,0.033125,0.01044847087,0.000125,6.25e-08,295850.0418,35.80042491,2.130570787e-05
20433,0.033375,0.01044847087,0.000125,6.25e-08,293405.5301,35.34907944,2.114325446e-05
20434,0.033625,0.01044847087,0.000125,6.25e-08,291119.4695,34.92829872,2.099120374e-05
20435,0.033875,0.01044847087,0.000125,6.25e-08,288979.675,34.53560266,2.08487708e-05
20436,0.034125,0.01044847087,0.000125,6.25e-08,286975.078,34.16874902,2.071523844e-05
20437,0.034375,0.01044847087,0.000125,6.25e-08,285095.7006,33.82572688,2.058995991e-05
20438,0.034625,0.01044847087,0.000125,6.25e-08,283332.405,33.50470649,2.047234264e-05
20439,0.034875,0.01044847087,0.000125,6.25e-08,281676.8698,33.20402777,2.036184367e-05
20440,0.035125,0.01044847087,0.000125,6.25e-08,280121.4395,32.92217457,2.025796505e-05
20441,0.035375,0.01044847087,0.000125,6.25e-08,278659.1118,32.65776623,2.016024981e-05
20442,0.035625,0.01044847087,0.000125,6.25e-08,277283.4544,32.40954014,2.006827676e-05
20443,0.035875,0.01044847087,0.000125,6.25e-08,275988.551,32.17634288,1.998166033e-05
20444,0.036125,0.01044847087,0.000125,6.25e-08,274768.9348,31.95711177,1.990004138e-05
20445,0.036375,0.01044847087,0.000125,6.25e-08,273619.6252,31.75088256,1.98230927e-05
20446,0.036625,0.01044847087,0.000125,6.25e-08,272535.9924,31.55676474,1.975051132e-05
20447,0.036875,0.01044847087,0.000125,6.25e-08,271513.7836,31.37394168,1.968201669e-05
20448,0.037125,0.01044847087,0.000125,6.25e-08,270549.0279,31.20165514,1.961734727e-05
20449,0.037375,0.01044847087,0.000125,6.25e-08,269638.0503,31.03920574,1.955626033e-05
20450,0.037625,0.01044847087,0.000125,6.25e-08,268777.4348,30.88594673,1.949853083e-05
20451,0.037875,0.01044847087,0.000125,6.25e-08,267964.0157,30.74127975,1.944394876e-05
20452,0.038125,0.01044847087,0.000125,6.25e-08,267194.8559,30.60465307,1.939232071e-05
20453,0.038375,0.01044847087,0.000125,6.25e-08,266467.2081,30.47555332,1.93434664e-05
20454,0.038625,0.01044847087,0.000125,6.25e-08,265778.5302,30.35350398,1.929721579e-05
20455,0.038875,0.01044847087,0.000125,6.25e-08,265126.4654,30.23806524,1.925341184e-05
20456,0.039125,0.01044847087,0.000125,6.25e-08,264508.8013,30.128827,1.921190849e-05
20457,0.039375,0.01044847087,0.000125,6.25e-08,263923.4805,30.02540832,1.917256911e-05
20458,0.039625,0.01044847087,0.000125,6.25e-08,263368.5884,29.92745484,1.913526567e-05
20459,0.039875,0.01044847087,0.000125,6.25e-08,262842.334,29.83463748,1.909987986e-05
20460,0.040125,0.01044847087,0.000125,6.25e-08,262343.0334,29.74664801,1.906630075e-05
20461,0.040375,0.01044847087,0.000125,6.25e-08,261869.1242,29.66319941,1.903442354e-05
20462,0.040625,0.01044847087,0.000125,6.25e-08,261419.1439,29.58402349,1.900414997e-05
20463,0.040875,0.01044847087,0.000125,6.25e-08,260991.7229,29.50887044,1.897538875e-05
20464,0.041125,0.01044847087,0.000125,6.25e-08,260585.5721,29.43750598,1.894805425e-05
20465,0.041375,0.01044847087,0.000125,6.25e-08,260199.4871,29.36971132,1.892206609e-05
20466,0.041625,0.01044847087,0.000125,6.25e-08,259832.3375,29.30528083,1.889734801e-05
20467,0.041875,0.01044847087,0.000125,6.25e-08,259483.0645,29.24402363,1.887383004e-05
20468,0.042125,0.01044847087,0.000125,6.25e-08,259150.6633,29.18575901,1.885144579e-05
20469,0.042375,0.01044847087,0.000125,6.25e-08,258834.2029,29.13031907,1.883013301e-05
20470,0.042625,0.01044847087,0.000125,6.25e-08,258532.8037,29.07754478,1.880983207e-05
20471,0.042875,0.01044847087,0.000125,6.25e-08,258245.6505,29.02728884,1.879048765e-05
20472,0.043125,0.01044847087,0.000125,6.25e-08,257971.962,28.9794118,1.87720482e-05
20473,0.043375,0.01044847087,0.000125,6.25e-08,257711.009,28.933783,1.87544649e-05
20474,0.043625,0.01044847087,0.000125,6.25e-08,257462.1069,28.89027953,1.873769148e-05
20475,0.043875,0.01044847087,0.000125,6.25e-08,257224.6112,28.84878623,1.872168476e-05
20476,0.044125,0.01044847087,0.000125,6.25e-08,256997.9093,28.80919448,1.870640442e-05
20477,0.044375,0.01044847087,0.000125,6.25e-08,256781.4225,28.77140115,1.869181167e-05
20478,0.044625,0.01044847087,0.000125,6.25e-08,256574.6072,28.73530981,1.867787042e-05
20479,0.044875,0.01044847087,0.000125,6.25e-08,256376.9529,28.70082893,1.866454564e-05
20480,0.045125,0.01044847087,0.000125,6.25e-08,256187.9876,28.66787393,1.865180489e-05
20481,0.045375,0.01044847087,0.000125,6.25e-08,256007.2524,28.63636408,1.863961812e-05
20482,0.045625,0.01044847087,0.000125,6.25e-08,255834.3197,28.60622356,1.862795663e-05
20483,0.045875,0.01044847087,0.000125,6.25e-08,255668.789,28.57738069,1.861679275e-05
20484,0.046125,0.01044847087,0.000125,6.25e-08,255510.2768,28.54976867,1.860610186e-05
20485,0.046375,0.01044847087,0.000125,6.25e-08,255358.4159,28.5233226,1.859585929e-05