cellI,x,y,z,V,Ux,Uy,Uz
0,0.000125,0.000125,0.000125,1.5625e-11,99.96176461,0.01428809022,0
1,0.000375,0.000125,0.000125,1.5625e-11,99.92387122,0.04112254731,0
2,0.000625,0.000125,0.000125,1.5625e-11,99.85858606,0.05761481221,0
3,0.000875,0.000125,0.000125,1.5625e-11,99.77379926,0.06961546885,0
4,0.001125,0.000125,0.000125,1.5625e-11,99.6798272,0.07921759757,0
5,0.001375,0.000125,0.000125,1.5625e-11,99.57965572,0.08737314807,0
6,0.001625,0.000125,0.000125,1.5625e-11,99.47345746,0.09443896109,0
7,0.001875,0.000125,0.000125,1.5625e-11,99.3615278,0.1006539654,0
8,0.002125,0.000125,0.000125,1.5625e-11,99.24449887,0.1062315626,0
9,0.002375,0.000125,0.000125,1.5625e-11,99.12300273,0.111287124,0
10,0.002625,0.000125,0.000125,1.5625e-11,98.99754726,0.1158857075,0
11,0.002875,0.000125,0.000125,1.5625e-11,98.86854417,0.1200361993,0
12,0.003125,0.000125,0.000125,1.5625e-11,98.73634609,0.1237407391,0
13,0.003375,0.000125,0.000125,1.5625e-11,98.60131413,0.1270387253,0
14,0.003625,0.000125,0.000125,1.5625e-11,98.46376999,0.1299773554,0
15,0.003875,0.000125,0.000125,1.5625e-11,98.32397597,0.1326068877,0
16,0.004125,0.000125,0.000125,1.5625e-11,98.18218758,0.1349567699,0
17,0.004375,0.000125,0.000125,1.5625e-11,98.03865674,0.1370419529,0
18,0.004625,0.000125,0.000125,1.5625e-11,97.89361681,0.1388741304,0
19,0.004875,0.000125,0.000125,1.5625e-11,97.7472736,0.1404698001,0
20,0.005125,0.000125,0.000125,1.5625e-11,97.59981528,0.1418552916,0
21,0.005375,0.000125,0.000125,1.5625e-11,97.45143114,0.1430483548,0
22,0.005625,0.000125,0.000125,1.5625e-11,97.30229221,0.1440398906,0
23,0.005875,0.000125,0.000125,1.5625e-11,97.15253771,0.1448218789,0
24,0.006125,0.000125,0.000125,1.5625e-11,97.00229544,0.1454020716,0
25,0.006375,0.000125,0.000125,1.5625e-11,96.85169494,0.1457978097,0
26,0.006625,0.000125,0.000125,1.5625e-11,96.70086254,0.1460253623,0
27,0.006875,0.000125,0.000125,1.5625e-11,96.54991402,0.1460976623,0
28,0.007125,0.000125,0.000125,1.5625e-11,96.39895343,0.1460264447,0
29,0.007375,0.000125,0.000125,1.5625e-11,96.24807649,0.1458227625,0
30,0.007625,0.000125,0.000125,1.5625e-11,96.09737743,0.1454972658,0
31,0.007875,0.000125,0.000125,1.5625e-11,95.94694939,0.1450609243,0
32,0.008125,0.000125,0.000125,1.5625e-11,95.79687585,0.144523267,0
33,0.008375,0.000125,0.000125,1.5625e-11,95.64722691,0.1438913925,0
34,0.008625,0.000125,0.000125,1.5625e-11,95.49806124,0.1431752588,0
35,0.008875,0.000125,0.000125,1.5625e-11,95.34943133,0.1423830166,0
36,0.009125,0.000125,0.000125,1.5625e-11,95.20139069,0.1415175751,0
37,0.009375,0.000125,0.000125,1.5625e-11,95.05398962,0.1405834258,0
38,0.009625,0.000125,0.000125,1.5625e-11,94.90726742,0.1395855428,0
39,0.009875,0.000125,0.000125,1.5625e-11,94.76125631,0.1385290562,0
40,0.010125,0.000125,0.000125,1.5625e-11,94.61598839,0.1374202602,0
41,0.010375,0.000125,0.000125,1.5625e-11,94.47149609,0.1362659631,0
42,0.010625,0.000125,0.000125,1.5625e-11,94.3278095,0.1350724095,0
43,0.010875,0.000125,0.000125,1.5625e-11,94.18495513,0.1338449019,0
44,0.011125,0.000125,0.000125,1.5625e-11,94.04295655,0.1325879959,0
45,0.011375,0.000125,0.000125,1.5625e-11,93.90183481,0.131305837,0
46,0.011625,0.000125,0.000125,1.5625e-11,93.76160888,0.1300012057,0
47,0.011875,0.000125,0.000125,1.5625e-11,93.62229641,0.1286781696,0
48,0.012125,0.000125,0.000125,1.5625e-11,93.48391273,0.1273409365,0
49,0.012375,0.000125,0.000125,1.5625e-11,93.34647084,0.1259906607,0
50,0.012625,0.000125,0.000125,1.5625e-11,93.20998383,0.12462803,0
51,0.012875,0.000125,0.000125,1.5625e-11,93.07446616,0.1232536951,0
52,0.013125,0.000125,0.000125,1.5625e-11,92.93993311,0.1218685992,0
53,0.013375,0.000125,0.000125,1.5625e-11,92.80639936,0.1204744449,0
54,0.013625,0.000125,0.000125,1.5625e-11,92.67387823,0.1190730965,0
55,0.013875,0.000125,0.000125,1.5625e-11,92.54238202,0.1176661539,0
56,0.014125,0.000125,0.000125,1.5625e-11,92.41192282,0.1162549455,0
57,0.014375,0.000125,0.000125,1.5625e-11,92.28251254,0.1148411914,0
58,0.014625,0.000125,0.000125,1.5625e-11,92.15416293,0.1134260071,0
59,0.014875,0.000125,0.000125,1.5625e-11,92.02688731,0.1120088548,0
60,0.015125,0.000125,0.000125,1.5625e-11,91.9007025,0.1105881627,0
61,0.015375,0.000125,0.000125,1.5625e-11,91.77562928,0.1091620696,0
62,0.015625,0.000125,0.000125,1.5625e-11,91.65169191,0.1077284789,0
63,0.015875,0.000125,0.000125,1.5625e-11,91.52891843,0.1062849134,0
64,0.016125,0.000125,0.000125,1.5625e-11,91.40734148,0.10482846,0
65,0.016375,0.000125,0.000125,1.5625e-11,91.28699944,0.1033557115,0
66,0.016625,0.000125,0.000125,1.5625e-11,91.1679374,0.1018626547,0
67,0.016875,0.000125,0.000125,1.5625e-11,91.05020829,0.1003445665,0
68,0.017125,0.000125,0.000125,1.5625e-11,90.93387428,0.09879590695,0
69,0.017375,0.000125,0.000125,1.5625e-11,90.81900828,0.09721035463,0
70,0.017625,0.000125,0.000125,1.5625e-11,90.70569557,0.09558064652,0
71,0.017875,0.000125,0.000125,1.5625e-11,90.59403567,0.09389960832,0
72,0.018125,0.000125,0.000125,1.5625e-11,90.48414404,0.0921593731,0
73,0.018375,0.000125,0.000125,1.5625e-11,90.37615831,0.09034572206,0
74,0.018625,0.000125,0.000125,1.5625e-11,90.27025259,0.08843087424,0
75,0.018875,0.000125,0.000125,1.5625e-11,90.16663691,0.08639155617,0
76,0.019125,0.000125,0.000125,1.5625e-11,90.06555083,0.08420515861,0
77,0.019375,0.000125,0.000125,1.5625e-11,89.9672738,0.08184411757,0
78,0.019625,0.000125,0.000125,1.5625e-11,89.8721404,0.07927369076,0
79,0.019875,0.000125,0.000125,1.5625e-11,89.78055286,0.07645041416,0
80,0.020125,0.000125,0.000125,1.5625e-11,89.6929938,0.07332025659,0
81,0.020375,0.000125,0.000125,1.5625e-11,89.61004281,0.06981495278,0
82,0.020625,0.000125,0.000125,1.5625e-11,89.53239794,0.0658483032,0
83,0.020875,0.000125,0.000125,1.5625e-11,89.4608996,0.06130787051,0
84,0.021125,0.000125,0.000125,1.5625e-11,89.39658627,0.05603644706,0
85,0.021375,0.000125,0.000125,1.5625e-11,89.34076192,0.04966570714,0
86,0.021625,0.000125,0.000125,1.5625e-11,89.29501222,0.04284320214,0
87,0.021875,0.000125,0.000125,1.5625e-11,89.26131955,0.0350329122,0
88,0.022125,0.000125,0.000125,1.5625e-11,89.24195365,0.02689628979,0
89,0.022375,0.000125,0.000125,1.5625e-11,89.24015832,0.01516711832,0
90,0.022625,0.000125,0.000125,1.5625e-11,89.26031011,0.0005803756313,0
91,0.022875,0.000125,0.000125,1.5625e-11,89.30854811,-0.02070782853,0
92,0.023125,0.000125,0.000125,1.5625e-11,89.392413,-0.04352164191,0
93,0.023375,0.000125,0.000125,1.5625e-11,89.52154576,-0.07331909933,0
94,0.023625,0.000125,0.000125,1.5625e-11,89.71034988,-0.1142004456,0
95,0.023875,0.000125,0.000125,1.5625e-11,89.98059774,-0.1714187946,0
96,0.024125,0.000125,0.000125,1.5625e-11,90.36754214,-0.2576877921,0
97,0.024375,0.000125,0.000125,1.5625e-11,90.92752905,-0.3762538463,0
98,0.024625,0.000125,0.000125,1.5625e-11,91.76502521,-0.6427685118,0
99,0.024875,0.000125,0.000125,1.5625e-11,93.19141272,-0.8084764962,0
100,0.000125,0.000375,0.000125,1.5625e-11,100.0063444,0.03194280207,0
101,0.000375,0.000375,0.000125,1.5625e-11,100.0272928,0.06645996982,0
102,0.000625,0.000375,0.000125,1.5625e-11,100.0468271,0.08338122307,0
103,0.000875,0.000375,0.000125,1.5625e-11,100.0553793,0.09478946538,0
104,0.001125,0.000375,0.000125,1.5625e-11,100.0612543,0.1041378057,0
105,0.001375,0.000375,0.000125,1.5625e-11,100.0660221,0.1117671158,0
106,0.001625,0.000375,0.000125,1.5625e-11,100.0694037,0.1180541471,0
107,0.001875,0.000375,0.000125,1.5625e-11,100.0712747,0.1236060688,0
108,0.002125,0.000375,0.000125,1.5625e-11,100.0718603,0.1283948967,0
109,0.002375,0.000375,0.000125,1.5625e-11,100.0712897,0.1326367591,0
110,0.002625,0.000375,0.000125,1.5625e-11,100.0696147,0.1363640135,0
111,0.002875,0.000375,0.000125,1.5625e-11,100.0668473,0.1398352346,0
112,0.003125,0.000375,0.000125,1.5625e-11,100.0630591,0.1429613416,0
113,0.003375,0.000375,0.000125,1.5625e-11,100.0583332,0.1456209309,0
114,0.003625,0.000375,0.000125,1.5625e-11,100.0527058,0.1480940457,0
115,0.003875,0.000375,0.000125,1.5625e-11,100.046136,0.150287065,0
116,0.004125,0.000375,0.000125,1.5625e-11,100.0385886,0.152191995,0
117,0.004375,0.000375,0.000125,1.5625e-11,100.0300578,0.1538516316,0
118,0.004625,0.000375,0.000125,1.5625e-11,100.0205558,0.1552927437,0
119,0.004875,0.000375,0.000125,1.5625e-11,100.0100904,0.1565436736,0
120,0.005125,0.000375,0.000125,1.5625e-11,99.9986382,0.157582411,0
121,0.005375,0.000375,0.000125,1.5625e-11,99.9861851,0.1584175607,0
122,0.005625,0.000375,0.000125,1.5625e-11,99.97274013,0.159170791,0
123,0.005875,0.000375,0.000125,1.5625e-11,99.95831538,0.159862396,0
124,0.006125,0.000375,0.000125,1.5625e-11,99.94291899,0.1604661992,0
125,0.006375,0.000375,0.000125,1.5625e-11,99.92655882,0.1609611402,0
126,0.006625,0.000375,0.000125,1.5625e-11,99.90924323,0.161355703,0
127,0.006875,0.000375,0.000125,1.5625e-11,99.89098068,0.1616597457,0
128,0.007125,0.000375,0.000125,1.5625e-11,99.87178004,0.1618769313,0
129,0.007375,0.000375,0.000125,1.5625e-11,99.85165152,0.1619987021,0
130,0.007625,0.000375,0.000125,1.5625e-11,99.83061364,0.1620250726,0
131,0.007875,0.000375,0.000125,1.5625e-11,99.80869141,0.1619752831,0
132,0.008125,0.000375,0.000125,1.5625e-11,99.78590541,0.1618681747,0
133,0.008375,0.000375,0.000125,1.5625e-11,99.76227458,0.161711601,0
134,0.008625,0.000375,0.000125,1.5625e-11,99.73781194,0.1615070055,0
135,0.008875,0.000375,0.000125,1.5625e-11,99.71252291,0.1612579868,0
136,0.009125,0.000375,0.000125,1.5625e-11,99.68642394,0.1609783957,0
137,0.009375,0.000375,0.000125,1.5625e-11,99.6595383,0.1606811947,0
138,0.009625,0.000375,0.000125,1.5625e-11,99.63188197,0.1603649526,0
139,0.009875,0.000375,0.000125,1.5625e-11,99.60346838,0.1600214133,0
140,0.010125,0.000375,0.000125,1.5625e-11,99.5743144,0.1596464342,0
141,0.010375,0.000375,0.000125,1.5625e-11,99.5444392,0.1592409169,0
142,0.010625,0.000375,0.000125,1.5625e-11,99.51386166,0.1588073643,0
143,0.010875,0.000375,0.000125,1.5625e-11,99.48259997,0.1583481287,0
144,0.011125,0.000375,0.000125,1.5625e-11,99.45067259,0.1578644069,0
145,0.011375,0.000375,0.000125,1.5625e-11,99.41809691,0.1573602117,0
146,0.011625,0.000375,0.000125,1.5625e-11,99.38489322,0.156832925,0
147,0.011875,0.000375,0.000125,1.5625e-11,99.3510812,0.1562830421,0
148,0.012125,0.000375,0.000125,1.5625e-11,99.3166788,0.1557179092,0
149,0.012375,0.000375,0.000125,1.5625e-11,99.28170137,0.1551363269,0
150,0.012625,0.000375,0.000125,1.5625e-11,99.2461681,0.1545363627,0
151,0.012875,0.000375,0.000125,1.5625e-11,99.21010126,0.1539162085,0
152,0.013125,0.000375,0.000125,1.5625e-11,99.17352583,0.1532746048,0
153,0.013375,0.000375,0.000125,1.5625e-11,99.13646731,0.1526114078,0
154,0.013625,0.000375,0.000125,1.5625e-11,99.09894977,0.1519261918,0
155,0.013875,0.000375,0.000125,1.5625e-11,99.06099647,0.151218444,0
156,0.014125,0.000375,0.000125,1.5625e-11,99.0226315,0.1504865379,0
157,0.014375,0.000375,0.000125,1.5625e-11,98.98387906,0.1497297141,0
158,0.014625,0.000375,0.000125,1.5625e-11,98.94476156,0.1489465169,0
159,0.014875,0.000375,0.000125,1.5625e-11,98.90530234,0.1481333897,0
160,0.015125,0.000375,0.000125,1.5625e-11,98.86552923,0.1472860203,0
161,0.015375,0.000375,0.000125,1.5625e-11,98.82547468,0.1463999347,0
162,0.015625,0.000375,0.000125,1.5625e-11,98.78517458,0.1454698282,0
163,0.015875,0.000375,0.000125,1.5625e-11,98.74466812,0.1444891153,0
164,0.016125,0.000375,0.000125,1.5625e-11,98.70399862,0.1434499494,0
165,0.016375,0.000375,0.000125,1.5625e-11,98.66321437,0.142343182,0
166,0.016625,0.000375,0.000125,1.5625e-11,98.62236949,0.1411580171,0
167,0.016875,0.000375,0.000125,1.5625e-11,98.58152494,0.13988173,0
168,0.017125,0.000375,0.000125,1.5625e-11,98.54074982,0.1384989142,0
169,0.017375,0.000375,0.000125,1.5625e-11,98.50012266,0.1369921018,0
170,0.017625,0.000375,0.000125,1.5625e-11,98.45973381,0.135338113,0
171,0.017875,0.000375,0.000125,1.5625e-11,98.41968661,0.1335123189,0
172,0.018125,0.000375,0.000125,1.5625e-11,98.3800923,0.1314890071,0
173,0.018375,0.000375,0.000125,1.5625e-11,98.34106917,0.1292383115,0
174,0.018625,0.000375,0.000125,1.5625e-11,98.30278099,0.1267211075,0
175,0.018875,0.000375,0.000125,1.5625e-11,98.2654368,0.1238878793,0
176,0.019125,0.000375,0.000125,1.5625e-11,98.22926482,0.1206772925,0
177,0.019375,0.000375,0.000125,1.5625e-11,98.19452121,0.1170170604,0
178,0.019625,0.000375,0.000125,1.5625e-11,98.16150756,0.1128219013,0
179,0.019875,0.000375,0.000125,1.5625e-11,98.13058392,0.1079889111,0
180,0.020125,0.000375,0.000125,1.5625e-11,98.1021796,0.102394241,0
181,0.020375,0.000375,0.000125,1.5625e-11,98.07680853,0.09588814816,0
182,0.020625,0.000375,0.000125,1.5625e-11,98.05508792,0.08828214629,0
183,0.020875,0.000375,0.000125,1.5625e-11,98.03776366,0.07935868475,0
184,0.021125,0.000375,0.000125,1.5625e-11,98.02568812,0.0687782988,0
185,0.021375,0.000375,0.000125,1.5625e-11,98.01991385,0.05625705051,0
186,0.021625,0.000375,0.000125,1.5625e-11,98.02163065,0.04113566635,0
187,0.021875,0.000375,0.000125,1.5625e-11,98.03242067,0.02270385031,0
188,0.022125,0.000375,0.000125,1.5625e-11,98.0545349,1.060347975e-05,0
189,0.022375,0.000375,0.000125,1.5625e-11,98.09061678,-0.02794555128,0
190,0.022625,0.000375,0.000125,1.5625e-11,98.14369626,-0.06260586528,0
191,0.022875,0.000375,0.000125,1.5625e-11,98.21756309,-0.1058274393,0
192,0.023125,0.000375,0.000125,1.5625e-11,98.31718793,-0.1608509269,0
193,0.023375,0.000375,0.000125,1.5625e-11,98.44971954,-0.2322644488,0
194,0.023625,0.000375,0.000125,1.5625e-11,98.62416326,-0.3273416226,0
195,0.023875,0.000375,0.000125,1.5625e-11,98.85270989,-0.4579178476,0
196,0.024125,0.000375,0.000125,1.5625e-11,99.14974426,-0.645059311,0
197,0.024375,0.000375,0.000125,1.5625e-11,99.537693,-0.9220957262,0
198,0.024625,0.000375,0.000125,1.5625e-11,100.0092267,-1.360839848,0
199,0.024875,0.000375,0.000125,1.5625e-11,100.5608093,-2.016995133,0
200,0.000125,0.000625,0.000125,1.5625e-11,100.0024401,0.01815422036,0
201,0.000375,0.000625,0.000125,1.5625e-11,100.011806,0.04113035788,0
202,0.000625,0.000625,0.000125,1.5625e-11,100.0250912,0.05658044097,0
203,0.000875,0.000625,0.000125,1.5625e-11,100.03799,0.06941736768,0
204,0.001125,0.000625,0.000125,1.5625e-11,100.0495904,0.08054800218,0
205,0.001375,0.000625,0.000125,1.5625e-11,100.0605653,0.09017824373,0
206,0.001625,0.000625,0.000125,1.5625e-11,100.07096,0.09846273306,0
207,0.001875,0.000625,0.000125,1.5625e-11,100.0807546,0.1057405552,0
208,0.002125,0.000625,0.000125,1.5625e-11,100.0899366,0.1122072876,0
209,0.002375,0.000625,0.000125,1.5625e-11,100.0987729,0.1181306295,0
210,0.002625,0.000625,0.000125,1.5625e-11,100.1071461,0.1234971414,0
211,0.002875,0.000625,0.000125,1.5625e-11,100.1154229,0.1282888125,0
212,0.003125,0.000625,0.000125,1.5625e-11,100.1238503,0.1326637537,0
213,0.003375,0.000625,0.000125,1.5625e-11,100.1315743,0.136756071,0
214,0.003625,0.000625,0.000125,1.5625e-11,100.1389487,0.1405886609,0
215,0.003875,0.000625,0.000125,1.5625e-11,100.1460938,0.1441706567,0
216,0.004125,0.000625,0.000125,1.5625e-11,100.1529983,0.1475151943,0
217,0.004375,0.000625,0.000125,1.5625e-11,100.1596672,0.1506333717,0
218,0.004625,0.000625,0.000125,1.5625e-11,100.1661174,0.1535304664,0
219,0.004875,0.000625,0.000125,1.5625e-11,100.17236,0.1562984657,0
220,0.005125,0.000625,0.000125,1.5625e-11,100.1783055,0.1589488093,0
221,0.005375,0.000625,0.000125,1.5625e-11,100.1840997,0.1613940169,0
222,0.005625,0.000625,0.000125,1.5625e-11,100.1896984,0.1636338459,0
223,0.005875,0.000625,0.000125,1.5625e-11,100.1951043,0.1656877217,0
224,0.006125,0.000625,0.000125,1.5625e-11,100.2003303,0.1675749218,0
225,0.006375,0.000625,0.000125,1.5625e-11,100.2053765,0.1693145862,0
226,0.006625,0.000625,0.000125,1.5625e-11,100.2102309,0.1709214208,0
227,0.006875,0.000625,0.000125,1.5625e-11,100.2148743,0.1724152088,0
228,0.007125,0.000625,0.000125,1.5625e-11,100.219284,0.1738315714,0
229,0.007375,0.000625,0.000125,1.5625e-11,100.2234696,0.1751435965,0
230,0.007625,0.000625,0.000125,1.5625e-11,100.2274657,0.1762963167,0
231,0.007875,0.000625,0.000125,1.5625e-11,100.2312864,0.1773035903,0
232,0.008125,0.000625,0.000125,1.5625e-11,100.2349154,0.1781992244,0
233,0.008375,0.000625,0.000125,1.5625e-11,100.2383352,0.1789839964,0
234,0.008625,0.000625,0.000125,1.5625e-11,100.2415405,0.1797238273,0
235,0.008875,0.000625,0.000125,1.5625e-11,100.2445364,0.1803807833,0
236,0.009125,0.000625,0.000125,1.5625e-11,100.2473173,0.1808806995,0
237,0.009375,0.000625,0.000125,1.5625e-11,100.2498613,0.1813059586,0
238,0.009625,0.000625,0.000125,1.5625e-11,100.252146,0.1816898119,0
239,0.009875,0.000625,0.000125,1.5625e-11,100.2541675,0.1820237055,0
240,0.010125,0.000625,0.000125,1.5625e-11,100.2559338,0.1823008721,0
241,0.010375,0.000625,0.000125,1.5625e-11,100.2574519,0.1825212644,0
242,0.010625,0.000625,0.000125,1.5625e-11,100.2587243,0.1826882084,0
243,0.010875,0.000625,0.000125,1.5625e-11,100.2597513,0.1828038798,0
244,0.011125,0.000625,0.000125,1.5625e-11,100.2605354,0.1828700047,0
245,0.011375,0.000625,0.000125,1.5625e-11,100.2610685,0.1828878761,0
246,0.011625,0.000625,0.000125,1.5625e-11,100.2613928,0.1828610498,0
247,0.011875,0.000625,0.000125,1.5625e-11,100.2614204,0.1827924748,0
248,0.012125,0.000625,0.000125,1.5625e-11,100.2612376,0.1826812052,0
249,0.012375,0.000625,0.000125,1.5625e-11,100.260816,0.1825248386,0
250,0.012625,0.000625,0.000125,1.5625e-11,100.260155,0.1823144179,0
251,0.012875,0.000625,0.000125,1.5625e-11,100.2592606,0.1820458113,0
252,0.013125,0.000625,0.000125,1.5625e-11,100.2581426,0.1817259511,0
253,0.013375,0.000625,0.000125,1.5625e-11,100.2568108,0.1813613491,0
254,0.013625,0.000625,0.000125,1.5625e-11,100.2552729,0.1809525816,0
255,0.013875,0.000625,0.000125,1.5625e-11,100.2535358,0.1804996826,0
256,0.014125,0.000625,0.000125,1.5625e-11,100.251609,0.180010387,0
257,0.014375,0.000625,0.000125,1.5625e-11,100.2495022,0.1794881053,0
258,0.014625,0.000625,0.000125,1.5625e-11,100.2472211,0.1789217012,0
259,0.014875,0.000625,0.000125,1.5625e-11,100.2447739,0.1782969932,0
260,0.015125,0.000625,0.000125,1.5625e-11,100.2421746,0.1776048785,0
261,0.015375,0.000625,0.000125,1.5625e-11,100.2394409,0.176838922,0
262,0.015625,0.000625,0.000125,1.5625e-11,100.2365928,0.1759916455,0
263,0.015875,0.000625,0.000125,1.5625e-11,100.2336539,0.1750534134,0
264,0.016125,0.000625,0.000125,1.5625e-11,100.2306517,0.1740125387,0
265,0.016375,0.000625,0.000125,1.5625e-11,100.2276184,0.1728553685,0
266,0.016625,0.000625,0.000125,1.5625e-11,100.2245917,0.1715658536,0
267,0.016875,0.000625,0.000125,1.5625e-11,100.2216146,0.1701252169,0
268,0.017125,0.000625,0.000125,1.5625e-11,100.2187384,0.1685116233,0
269,0.017375,0.000625,0.000125,1.5625e-11,100.2160194,0.1667001259,0
270,0.017625,0.000625,0.000125,1.5625e-11,100.2135275,0.1646664127,0
271,0.017875,0.000625,0.000125,1.5625e-11,100.211348,0.1623821542,0
272,0.018125,0.000625,0.000125,1.5625e-11,100.2095794,0.1598315592,0
273,0.018375,0.000625,0.000125,1.5625e-11,100.2083375,0.1569296055,0
274,0.018625,0.000625,0.000125,1.5625e-11,100.2077526,0.1534584345,0
275,0.018875,0.000625,0.000125,1.5625e-11,100.2079766,0.1494611215,0
276,0.019125,0.000625,0.000125,1.5625e-11,100.2091923,0.1448630658,0
277,0.019375,0.000625,0.000125,1.5625e-11,100.211615,0.1395505636,0
278,0.019625,0.000625,0.000125,1.5625e-11,100.2154987,0.1333853154,0
279,0.019875,0.000625,0.000125,1.5625e-11,100.2211464,0.1262004023,0
280,0.020125,0.000625,0.000125,1.5625e-11,100.2289189,0.1177934871,0
281,0.020375,0.000625,0.000125,1.5625e-11,100.2392433,0.1079253987,0
282,0.020625,0.000625,0.000125,1.5625e-11,100.2526314,0.09633896892,0
283,0.020875,0.000625,0.000125,1.5625e-11,100.2696883,0.08270996261,0
284,0.021125,0.000625,0.000125,1.5625e-11,100.2911183,0.06659225559,0
285,0.021375,0.000625,0.000125,1.5625e-11,100.3177524,0.04735580854,0
286,0.021625,0.000625,0.000125,1.5625e-11,100.3506059,0.02424418828,0
287,0.021875,0.000625,0.000125,1.5625e-11,100.391001,-0.003691149448,0
288,0.022125,0.000625,0.000125,1.5625e-11,100.4404594,-0.03762744092,0
289,0.022375,0.000625,0.000125,1.5625e-11,100.5008905,-0.07938989712,0
290,0.022625,0.000625,0.000125,1.5625e-11,100.5747891,-0.1316878948,0
291,0.022875,0.000625,0.000125,1.5625e-11,100.6651696,-0.1974410737,0
292,0.023125,0.000625,0.000125,1.5625e-11,100.7750482,-0.2804237184,0
293,0.023375,0.000625,0.000125,1.5625e-11,100.9087411,-0.3858511955,0
294,0.023625,0.000625,0.000125,1.5625e-11,101.0692103,-0.521443652,0
295,0.023875,0.000625,0.000125,1.5625e-11,101.2600072,-0.7013093414,0
296,0.024125,0.000625,0.000125,1.5625e-11,101.4861364,-0.9450222936,0
297,0.024375,0.000625,0.000125,1.5625e-11,101.7328014,-1.277581555,0
298,0.024625,0.000625,0.000125,1.5625e-11,101.9707213,-1.747509479,0
299,0.024875,0.000625,0.000125,1.5625e-11,102.2159138,-2.385874419,0
300,0.000125,0.000875,0.000125,1.5625e-11,100.0011177,0.01155493809,0
301,0.000375,0.000875,0.000125,1.5625e-11,100.0065209,0.03229393777,0
302,0.000625,0.000875,0.000125,1.5625e-11,100.0160772,0.04901737451,0
303,0.000875,0.000875,0.000125,1.5625e-11,100.0266031,0.06269576581,0
304,0.001125,0.000875,0.000125,1.5625e-11,100.0368119,0.07420378173,0
305,0.001375,0.000875,0.000125,1.5625e-11,100.046943,0.08405015572,0
306,0.001625,0.000875,0.000125,1.5625e-11,100.0570985,0.09251300797,0
307,0.001875,0.000875,0.000125,1.5625e-11,100.0671648,0.09988644813,0
308,0.002125,0.000875,0.000125,1.5625e-11,100.0770501,0.1063793928,0
309,0.002375,0.000875,0.000125,1.5625e-11,100.0867725,0.1121591589,0
310,0.002625,0.000875,0.000125,1.5625e-11,100.0963826,0.1173369608,0
311,0.002875,0.000875,0.000125,1.5625e-11,100.1058206,0.1219395552,0
312,0.003125,0.000875,0.000125,1.5625e-11,100.1151152,0.1261224082,0
313,0.003375,0.000875,0.000125,1.5625e-11,100.1243361,0.1300356309,0
314,0.003625,0.000875,0.000125,1.5625e-11,100.1335449,0.1336741423,0
315,0.003875,0.000875,0.000125,1.5625e-11,100.1427242,0.1370074809,0
316,0.004125,0.000875,0.000125,1.5625e-11,100.1518433,0.1400413904,0
317,0.004375,0.000875,0.000125,1.5625e-11,100.1608983,0.1428037542,0
318,0.004625,0.000875,0.000125,1.5625e-11,100.169889,0.145320901,0
319,0.004875,0.000875,0.000125,1.5625e-11,100.1788224,0.1476242269,0
320,0.005125,0.000875,0.000125,1.5625e-11,100.1877263,0.1497297888,0
321,0.005375,0.000875,0.000125,1.5625e-11,100.1965931,0.1516310884,0
322,0.005625,0.000875,0.000125,1.5625e-11,100.2054181,0.1533549767,0
323,0.005875,0.000875,0.000125,1.5625e-11,100.2141777,0.1549275174,0
324,0.006125,0.000875,0.000125,1.5625e-11,100.2229159,0.1563728338,0
325,0.006375,0.000875,0.000125,1.5625e-11,100.2315847,0.1576926598,0
326,0.006625,0.000875,0.000125,1.5625e-11,100.2402586,0.1589082086,0
327,0.006875,0.000875,0.000125,1.5625e-11,100.2488406,0.1600035537,0
328,0.007125,0.000875,0.000125,1.5625e-11,100.2574911,0.1609452535,0
329,0.007375,0.000875,0.000125,1.5625e-11,100.2663179,0.1617574245,0
330,0.007625,0.000875,0.000125,1.5625e-11,100.2749596,0.1624984897,0
331,0.007875,0.000875,0.000125,1.5625e-11,100.2834739,0.1631745466,0
332,0.008125,0.000875,0.000125,1.5625e-11,100.2918886,0.1637812734,0
333,0.008375,0.000875,0.000125,1.5625e-11,100.3002059,0.1643224505,0
334,0.008625,0.000875,0.000125,1.5625e-11,100.3083895,0.1647852128,0
335,0.008875,0.000875,0.000125,1.5625e-11,100.316541,0.1652157178,0
336,0.009125,0.000875,0.000125,1.5625e-11,100.3244538,0.165657672,0
337,0.009375,0.000875,0.000125,1.5625e-11,100.3322684,0.1660591139,0
338,0.009625,0.000875,0.000125,1.5625e-11,100.3400433,0.1663905619,0
339,0.009875,0.000875,0.000125,1.5625e-11,100.3477587,0.1666563229,0
340,0.010125,0.000875,0.000125,1.5625e-11,100.355415,0.1668645903,0
341,0.010375,0.000875,0.000125,1.5625e-11,100.3630119,0.1670220874,0
342,0.010625,0.000875,0.000125,1.5625e-11,100.3705458,0.1671340709,0
343,0.010875,0.000875,0.000125,1.5625e-11,100.3780159,0.1672035444,0
344,0.011125,0.000875,0.000125,1.5625e-11,100.3854196,0.1672333299,0
345,0.011375,0.000875,0.000125,1.5625e-11,100.3927546,0.1672251463,0
346,0.011625,0.000875,0.000125,1.5625e-11,100.4000202,0.1671846385,0
347,0.011875,0.000875,0.000125,1.5625e-11,100.4072181,0.1671170403,0
348,0.012125,0.000875,0.000125,1.5625e-11,100.4143416,0.1670197902,0
349,0.012375,0.000875,0.000125,1.5625e-11,100.4213816,0.1669124267,0
350,0.012625,0.000875,0.000125,1.5625e-11,100.4283307,0.1667964361,0
351,0.012875,0.000875,0.000125,1.5625e-11,100.4352173,0.166621064,0
352,0.013125,0.000875,0.000125,1.5625e-11,100.4420621,0.166380297,0
353,0.013375,0.000875,0.000125,1.5625e-11,100.4488647,0.1660844378,0
354,0.013625,0.000875,0.000125,1.5625e-11,100.4556231,0.1657418132,0
355,0.013875,0.000875,0.000125,1.5625e-11,100.4623421,0.1653355215,0
356,0.014125,0.000875,0.000125,1.5625e-11,100.4690382,0.164845587,0
357,0.014375,0.000875,0.000125,1.5625e-11,100.4756937,0.1643268286,0
358,0.014625,0.000875,0.000125,1.5625e-11,100.4822951,0.1637847189,0
359,0.014875,0.000875,0.000125,1.5625e-11,100.4888512,0.1631977552,0
360,0.015125,0.000875,0.000125,1.5625e-11,100.4953838,0.1625470876,0
361,0.015375,0.000875,0.000125,1.5625e-11,100.5019139,0.1618188419,0
362,0.015625,0.000875,0.000125,1.5625e-11,100.5084605,0.1609995413,0
363,0.015875,0.000875,0.000125,1.5625e-11,100.5150439,0.1600746655,0
364,0.016125,0.000875,0.000125,1.5625e-11,100.5216881,0.159028239,0
365,0.016375,0.000875,0.000125,1.5625e-11,100.528421,0.1578414515,0
366,0.016625,0.000875,0.000125,1.5625e-11,100.5352745,0.156492292,0
367,0.016875,0.000875,0.000125,1.5625e-11,100.5422853,0.1549554045,0
368,0.017125,0.000875,0.000125,1.5625e-11,100.5494971,0.1531994355,0
369,0.017375,0.000875,0.000125,1.5625e-11,100.5569567,0.1511998731,0
370,0.017625,0.000875,0.000125,1.5625e-11,100.5647222,0.1488728902,0
371,0.017875,0.000875,0.000125,1.5625e-11,100.5728682,0.1461899886,0
372,0.018125,0.000875,0.000125,1.5625e-11,100.5814839,0.1430977459,0
373,0.018375,0.000875,0.000125,1.5625e-11,100.5906831,0.1395301071,0
374,0.018625,0.000875,0.000125,1.5625e-11,100.6005742,0.1354065661,0
375,0.018875,0.000875,0.000125,1.5625e-11,100.6112686,0.130626582,0
376,0.019125,0.000875,0.000125,1.5625e-11,100.6229148,0.1250676066,0
377,0.019375,0.000875,0.000125,1.5625e-11,100.6356972,0.1185834394,0
378,0.019625,0.000875,0.000125,1.5625e-11,100.6498326,0.1110022797,0
379,0.019875,0.000875,0.000125,1.5625e-11,100.6655726,0.1021024599,0
380,0.020125,0.000875,0.000125,1.5625e-11,100.6832336,0.09163799563,0
381,0.020375,0.000875,0.000125,1.5625e-11,100.7032057,0.07918699382,0
382,0.020625,0.000875,0.000125,1.5625e-11,100.726013,0.0643623313,0
383,0.020875,0.000875,0.000125,1.5625e-11,100.7520318,0.04681965006,0
384,0.021125,0.000875,0.000125,1.5625e-11,100.781837,0.02611616387,0
385,0.021375,0.000875,0.000125,1.5625e-11,100.8158524,0.001722152754,0
386,0.021625,0.000875,0.000125,1.5625e-11,100.8550036,-0.02748707925,0
387,0.021875,0.000875,0.000125,1.5625e-11,100.9003551,-0.06276180258,0
388,0.022125,0.000875,0.000125,1.5625e-11,100.9529597,-0.105586855,0
389,0.022375,0.000875,0.000125,1.5625e-11,101.0141504,-0.1577933049,0
390,0.022625,0.000875,0.000125,1.5625e-11,101.0845592,-0.2213189276,0
391,0.022875,0.000875,0.000125,1.5625e-11,101.1613432,-0.2997176061,0
392,0.023125,0.000875,0.000125,1.5625e-11,101.2529681,-0.397358884,0
393,0.023375,0.000875,0.000125,1.5625e-11,101.3505456,-0.5206319704,0
394,0.023625,0.000875,0.000125,1.5625e-11,101.4704519,-0.6780907039,0
395,0.023875,0.000875,0.000125,1.5625e-11,101.6036884,-0.8799446008,0
396,0.024125,0.000875,0.000125,1.5625e-11,101.7460902,-1.139720186,0
397,0.024375,0.000875,0.000125,1.5625e-11,101.8906257,-1.473833529,0
398,0.024625,0.000875,0.000125,1.5625e-11,102.0172778,-1.907263876,0
399,0.024875,0.000875,0.000125,1.5625e-11,102.0946533,-2.45319584,0
400,0.000125,0.001125,0.000125,1.5625e-11,100.0006662,0.008892200284,0
401,0.000375,0.001125,0.000125,1.5625e-11,100.0039715,0.02595349765,0
402,0.000625,0.001125,0.000125,1.5625e-11,100.0105366,0.04058606588,0
403,0.000875,0.001125,0.000125,1.5625e-11,100.0186276,0.05292063725,0
404,0.001125,0.001125,0.000125,1.5625e-11,100.0271963,0.06358750026,0
405,0.001375,0.001125,0.000125,1.5625e-11,100.0361116,0.07298641554,0
406,0.001625,0.001125,0.000125,1.5625e-11,100.0453556,0.08128477872,0
407,0.001875,0.001125,0.000125,1.5625e-11,100.0547898,0.08863587954,0
408,0.002125,0.001125,0.000125,1.5625e-11,100.0642927,0.09518719655,0
409,0.002375,0.001125,0.000125,1.5625e-11,100.0738209,0.1010679468,0
410,0.002625,0.001125,0.000125,1.5625e-11,100.0833732,0.1063737693,0
411,0.002875,0.001125,0.000125,1.5625e-11,100.0929234,0.1111714754,0
412,0.003125,0.001125,0.000125,1.5625e-11,100.1024457,0.1155518399,0
413,0.003375,0.001125,0.000125,1.5625e-11,100.1119565,0.1195944647,0
414,0.003625,0.001125,0.000125,1.5625e-11,100.1214916,0.1233265496,0
415,0.003875,0.001125,0.000125,1.5625e-11,100.1310636,0.1267613224,0
416,0.004125,0.001125,0.000125,1.5625e-11,100.1406635,0.1299215112,0
417,0.004375,0.001125,0.000125,1.5625e-11,100.1502815,0.1328345307,0
418,0.004625,0.001125,0.000125,1.5625e-11,100.1599139,0.1355256328,0
419,0.004875,0.001125,0.000125,1.5625e-11,100.1695577,0.1380192537,0
420,0.005125,0.001125,0.000125,1.5625e-11,100.1792231,0.1403315925,0
421,0.005375,0.001125,0.000125,1.5625e-11,100.1889046,0.1424662502,0
422,0.005625,0.001125,0.000125,1.5625e-11,100.198595,0.1444359225,0
423,0.005875,0.001125,0.000125,1.5625e-11,100.2082803,0.1462527083,0
424,0.006125,0.001125,0.000125,1.5625e-11,100.2179673,0.1479292064,0
425,0.006375,0.001125,0.000125,1.5625e-11,100.2276502,0.149470803,0
426,0.006625,0.001125,0.000125,1.5625e-11,100.2373349,0.1508867169,0
427,0.006875,0.001125,0.000125,1.5625e-11,100.2470218,0.1521782549,0
428,0.007125,0.001125,0.000125,1.5625e-11,100.2566839,0.1533285881,0
429,0.007375,0.001125,0.000125,1.5625e-11,100.2663127,0.1543721293,0
430,0.007625,0.001125,0.000125,1.5625e-11,100.2759288,0.1553651243,0
431,0.007875,0.001125,0.000125,1.5625e-11,100.2855566,0.1563018743,0
432,0.008125,0.001125,0.000125,1.5625e-11,100.2951858,0.157162414,0
433,0.008375,0.001125,0.000125,1.5625e-11,100.3047991,0.1579434424,0
434,0.008625,0.001125,0.000125,1.5625e-11,100.3143766,0.15864992,0