/*--------------------------------*- C++ -*----------------------------------*\
  =========                 |
  \\      /  F ield         | OpenFOAM: The Open Source CFD Toolbox
   \\    /   O peration     | Website:  https://openfoam.org
    \\  /    A nd           | Version:  8
     \\/     M anipulation  |
\*---------------------------------------------------------------------------*/
FoamFile
{
    version     2.0;
    format      ascii;
    class       volScalarField;
    location    "751";
    object      k;
}
// * * * * * * * * * * * * * * * * * * * * * * * * * * * * * * * * * * * * * //

dimensions      [0 2 -2 0 0 0 0];

internalField   nonuniform List<scalar> 
25600
(
7.829108496
9.941557212
12.13399329
14.38110589
16.66043541
18.95206421
21.23834437
23.50378363
25.73495049
27.92035111
30.05029511
32.11675839
34.11324722
36.03466442
37.87717416
39.63806934
41.31564433
42.90907451
44.41830148
45.84392486
47.18710263
48.44946088
49.63301047
50.74007116
51.77320475
52.73515686
53.62880562
54.45711648
55.22310305
55.92979389
56.58020497
57.1773167
57.72405446
58.22327249
58.67774104
59.09013684
59.46303657
59.798912
60.10012635
60.36893236
60.60747229
60.81777897
61.00177745
61.16128718
61.29802487
61.4136077
61.50955693
61.58730174
61.64818319
61.6934582
61.7243038
61.74182139
61.74704091
61.74092486
61.72437208
61.69822142
61.66325538
61.62020362
61.56974628
61.51251728
61.44910767
61.38006877
61.30591522
61.22712775
61.14415598
61.05742105
60.96731825
60.87421959
60.77847623
60.68042104
60.58037098
60.47862955
60.3754896
60.27123709
60.16615448
60.0605234
59.95462792
59.84875889
59.7432189
59.63832795
59.53442996
59.43190048
59.33115577
59.23266522
59.13696872
59.0446954
58.95658749
58.87349718
58.79422573
58.71254304
58.62797944
58.54074171
58.45026564
58.35513855
58.25234312
58.13629669
57.99507838
57.80978067
57.50904996
57.07626507
6.023144976
6.065247834
6.120772775
6.188021249
6.266001434
6.354003741
6.451461095
6.557917129
6.672932648
6.79607936
6.926908517
7.064970064
7.209788068
7.360847959
7.517647967
7.67966399
7.846360302
8.01719909
8.191644199
8.369169506
8.549252388
8.731382036
8.915075147
9.099865665
9.285305504
9.470968673
9.656455748
9.841394255
10.02543959
10.2082741
10.38960568
10.56917149
10.74673995
10.9221077
11.09510033
11.26556795
11.43338239
11.59844213
11.76066912
11.9200046
12.0764086
12.22986001
12.38035555
12.52790827
12.67254625
12.81431115
12.95325909
13.08945243
13.22296964
13.3538962
13.48232444
13.60835314
13.73208711
13.85363704
13.97311854
14.09065098
14.20635691
14.32036161
14.43279182
14.54377413
14.65343431
14.76189703
14.86928533
14.97571982
15.08131792
15.18619311
15.29045413
15.39420407
15.49753925
15.60054841
15.70331254
15.80590482
15.9083861
16.01079567
16.11315772
16.21547679
16.31773294
16.41987731
16.52182665
16.62345625
16.7245907
16.82499329
16.92435001
17.02224257
17.11808516
17.21120451
17.3006648
17.38420978
17.46031611
17.53348922
17.60194202
17.66327416
17.71412282
17.74941591
17.76157576
17.74026491
17.66693151
17.52077413
17.27751095
16.93226903
5.997844024
5.996778386
5.997013147
5.998578879
6.001486197
6.005727712
6.011283618
6.018130061
6.026240062
6.035585735
6.046137519
6.057857739
6.070699706
6.084631336
6.099619538
6.115628173
6.132619273
6.150553646
6.16939092
6.189091621
6.209622075
6.230941018
6.253007587
6.275780739
6.299219286
6.323281523
6.347926631
6.373113658
6.398803888
6.4249599
6.451540432
6.478505774
6.50581824
6.533441514
6.561340031
6.589480874
6.617829934
6.646357836
6.675038149
6.703845451
6.732755723
6.761746583
6.790797365
6.819889185
6.849004859
6.878129213
6.907247709
6.936349563
6.965424181
6.994462632
7.023457302
7.052402492
7.081294251
7.110130076
7.138908711
7.167630249
7.196296251
7.224908988
7.253471234
7.281986354
7.310458492
7.338892483
7.36729357
7.395667107
7.424018289
7.452351842
7.480671647
7.508980288
7.537278517
7.565564386
7.593832971
7.622075803
7.650282088
7.678439383
7.706526067
7.734510869
7.762352236
7.789996275
7.817373895
7.844398529
7.870963453
7.896937189
7.92214881
7.946380731
7.969349479
7.99070715
8.009535492
8.0263782
8.042179787
8.056468058
8.068471384
8.077677393
8.082986065
8.083909555
8.079500785
8.068885427
8.053284398
8.030665172
7.999672704
7.969134214
5.99693143
5.993802526
5.990797595
5.987953049
5.985299322
5.982860492
5.9806538
5.978691671
5.976983095
5.975534687
5.974350276
5.973431436
5.972778101
5.972388776
5.972260972
5.972391117
5.972774806
5.973406973
5.974281968
5.975393903
5.976736641
5.978303414
5.980087227
5.982080978
5.984277369
5.986669004
5.989248377
5.992007936
5.994936972
5.998021545
6.001254398
6.004628189
6.008135324
6.011767911
6.015518831
6.019379789
6.023348505
6.027420617
6.031589482
6.03584858
6.040191623
6.044612563
6.049105433
6.053664689
6.058285237
6.062962155
6.067691066
6.072467609
6.077288301
6.08214935
6.087050083
6.091986607
6.096954502
6.10195108
6.106972273
6.112016711
6.117078201
6.12215543
6.127247844
6.132354577
6.137474731
6.142607402
6.147751592
6.152906146
6.158069699
6.163240613
6.168416887
6.17359607
6.178775117
6.183950578
6.189118147
6.194272328
6.199405671
6.204508129
6.209568561
6.21457345
6.219506124
6.224345966
6.229067102
6.233636515
6.238012451
6.24212556
6.245926583
6.249333987
6.252263774
6.254553495
6.256554104
6.258226266
6.259534993
6.260575279
6.26155591
6.262353319
6.263237307
6.26374084
6.264124545
6.265121213
6.267960429
6.275282989
6.286567546
6.319161405
5.996874469
5.993611025
5.99036098
5.987130905
5.983927556
5.98075774
5.977627627
5.974542831
5.971508602
5.968529897
5.965611151
5.962756041
5.959967894
5.957249792
5.954604238
5.95203302
5.949537357
5.947118052
5.94477554
5.942509963
5.940321173
5.938208657
5.936171647
5.934209179
5.932320141
5.930503197
5.928756913
5.92707958
5.925469213
5.923923641
5.922440695
5.921018142
5.919653644
5.918344821
5.917089311
5.915884844
5.914729372
5.913620767
5.912556833
5.911535438
5.910554498
5.909611945
5.908705728
5.907833836
5.906994303
5.906185224
5.905404752
5.904651136
5.903922607
5.903217102
5.902528334
5.901854529
5.901195121
5.900548124
5.899913367
5.899287869
5.898676432
5.898078757
5.89749346
5.89691919
5.89635461
5.895798396
5.895249238
5.894705822
5.894166805
5.893630782
5.893096255
5.892561594
5.89202498
5.891484286
5.890937148
5.890380855
5.889812193
5.88922741
5.88862227
5.887991859
5.887330442
5.886631378
5.885887196
5.885089885
5.884237383
5.883348212
5.882411222
5.881422143
5.880350534
5.879253786
5.878150446
5.877072855
5.876076314
5.875254143
5.874741029
5.874766203
5.875629891
5.877914869
5.882459924
5.890616869
5.904552324
5.927434604
5.964046761
6.019820118
5.996863027
5.993583687
5.990309271
5.987040501
5.983778555
5.980524955
5.977281106
5.974048252
5.970827626
5.967620543
5.964428337
5.961252275
5.958093635
5.954953755
5.951833936
5.948735359
5.945659076
5.942606044
5.939577133
5.936573122
5.933594704
5.930642432
5.927716743
5.924817966
5.921946351
5.919102045
5.916285114
5.913495518
5.910733034
5.907997403
5.905288453
5.902605934
5.899949434
5.897318434
5.894712354
5.892130617
5.889572642
5.887037761
5.884525227
5.882034292
5.879564234
5.877114332
5.874683851
5.872272045
5.869878161
5.867501449
5.865141158
5.862796549
5.860466877
5.858151284
5.855848791
5.853558546
5.851279743
5.849011521
5.846753073
5.844503643
5.842262816
5.840030016
5.837804636
5.835586116
5.833373908
5.831167455
5.828966186
5.826769521
5.824576874
5.822387646
5.820201227
5.81801699
5.81583429
5.813652453
5.811470787
5.80928859
5.807105145
5.804919723
5.802731651
5.800540376
5.798345546
5.796147145
5.793945688
5.791742713
5.789541795
5.787348441
5.785168137
5.783020614
5.780938536
5.778954155
5.777115085
5.775490493
5.774181414
5.773341468
5.773196958
5.774080075
5.776461809
5.781004889
5.788667228
5.800852965
5.819551623
5.847442951
5.887920649
5.944866284
5.996857264
5.993571772
5.990290818
5.987014573
5.983743384
5.980477753
5.977218059
5.973964509
5.970717265
5.967476521
5.964242497
5.961015411
5.957795503
5.954583069
5.951378437
5.948181925
5.944993844
5.94181449
5.93864416
5.935483147
5.932331738
5.9291902
5.926058774
5.922937687
5.919827152
5.916727361
5.913638483
5.910560648
5.907493943
5.904438435
5.901394218
5.898361379
5.895339957
5.89232995
5.88933133
5.886344055
5.883368074
5.880403289
5.877449554
5.874506697
5.871574534
5.868652872
5.865741505
5.862840216
5.859948776
5.857066947
5.854194486
5.851331135
5.848476638
5.845630674
5.842792893
5.839963036
5.837140875
5.834326125
5.831518461
5.828717587
5.825923259
5.823135167
5.820352965
5.817576345
5.814805039
5.812038805
5.809277409
5.806520633
5.803768275
5.801020154
5.798276117
5.795536047
5.792799875
5.790067593
5.787339275
5.784615114
5.781895461
5.779180886
5.776472262
5.773770897
5.771078693
5.768398373
5.765733802
5.763090491
5.760476648
5.757903361
5.755389124
5.752959187
5.750644225
5.748487774
5.746552135
5.744924955
5.743729055
5.743138771
5.743400936
5.744862199
5.748004075
5.753487177
5.762211373
5.775393322
5.794638995
5.821976087
5.859760501
5.910420079
5.996853563
5.993564111
5.99027919
5.98699899
5.983723712
5.980453635
5.97718896
5.973929761
5.970676049
5.967427829
5.964185107
5.960947882
5.957716144
5.954489907
5.951269199
5.948054045
5.944844465
5.941640477
5.938442102
5.935249367
5.932062304
5.928880941
5.925705308
5.92253543
5.919371338
5.91621306
5.913060619
5.909914032
5.906773304
5.903638443
5.900509471
5.897386423
5.894269329
5.891158208
5.88805307
5.884953926
5.881860785
5.878773639
5.875692463
5.872617218
5.86954786
5.866484345
5.863426622
5.860374637
5.857328331
5.854287641
5.851252499
5.84822283
5.845198551
5.84217956
5.839165747
5.836157028
5.833153344
5.830154623
5.827160779
5.824171738
5.821187444
5.818207816
5.815232751
5.812262151
5.809295944
5.806334075
5.803376507
5.800423226
5.797474245
5.794529616
5.79158944
5.788653873
5.785723154
5.782797621
5.779877743
5.77696417
5.774057786
5.771159789
5.7682718
5.765396009
5.762535382
5.759693941
5.75687715
5.754092464
5.751350116
5.748664682
5.746056641
5.743552356
5.741187383
5.739010351
5.737088301
5.735513501
5.734412651
5.733960221
5.734396279
5.73604847
5.739358637
5.744913214
5.753477819
5.766035733
5.783814323
5.808269461
5.840986039
5.883462767
5.996850985
5.993558736
5.990270941
5.986987854
5.983709664
5.980436592
5.977168812
5.973906396
5.970649345
5.96739764
5.964151251
5.960910139
5.957674256
5.954443559
5.951218005
5.947997553
5.944782157
5.941571769
5.938366342
5.935165828
5.931970183
5.928779361
5.925593315
5.922412
5.919235371
5.916063385
5.912895998
5.909733165
5.906574841
5.903420983
5.90027156
5.897126549
5.893985929
5.890849678
5.887717771
5.884590187
5.881466906
5.878347905
5.875233154
5.872122619
5.869016267
5.865914065
5.862815983
5.859721989
5.85663205
5.853546135
5.850464211
5.847386243
5.844312195
5.841242023
5.838175682
5.835113139
5.832054375
5.828999378
5.825948133
5.822900633
5.81985688
5.816816875
5.81378061
5.81074808
5.807719298
5.804694294
5.801673122
5.798655859
5.795642617
5.792633547
5.789628857
5.786628821
5.783633801
5.780644277
5.777660879
5.774684435
5.771716039
5.768757134
5.765809631
5.762876067
5.759959828
5.757065434
5.754198951
5.751368536
5.748585227
5.745864384
5.743226305
5.740698258
5.73831681
5.736131197
5.734208073
5.732637728
5.731542105
5.731085457
5.731488099
5.733042909
5.736134137
5.741257431
5.749039161
5.760251533
5.775812979
5.796755828
5.824139292
5.85888967
5.996849106
5.993554805
5.990264851
5.986979545
5.983699098
5.980423712
5.977153544
5.973888675
5.970629125
5.967374884
5.964125923
5.960882198
5.957643662
5.954410259
5.951181937
5.947958638
5.944740304
5.941526872
5.938318279
5.935114464
5.931915364
5.928720917
5.925531062
5.922345737
5.919164881
5.915988435
5.912816339
5.909648536
5.906484967
5.903325578
5.90017032
5.897019152
5.893872033
5.890728926
5.887589791
5.884454592
5.881323295
5.878195863
5.87507226
5.871952446
5.868836384
5.865724037
5.862615371
5.859510352
5.85640895
5.853311132
5.85021687
5.847126134
5.844038893
5.840955119
5.837874783
5.834797862
5.831724346
5.828654226
5.8255875
5.82252417
5.819464242
5.816407729
5.813354643
5.810305
5.807258833
5.80421619
5.801177141
5.798141782
5.795110238
5.792082679
5.789059326
5.786040466
5.783026477
5.780017852
5.777015235
5.774019469
5.771031665
5.768053287
5.765086271
5.762133188
5.759197457
5.756283641
5.753397836
5.750548196
5.747745791
5.745005415
5.742346913
5.739796849
5.737390723
5.735175984
5.733216113
5.731595924
5.730428262
5.729862464
5.730094767
5.73138033
5.734046099
5.73850313
5.745255978
5.75490535
5.768137194
5.785687832
5.808273641
5.836477786
5.996847687
5.993551838
5.99026024
5.986973205
5.983690962
5.980413719
5.977141635
5.973874797
5.970613241
5.967356969
5.964105963
5.960860186
5.957619593
5.954384129
5.951153735
5.94792835
5.944707911
5.941492351
5.938281604
5.935075602
5.931874281
5.928677574
5.925485416
5.922297743
5.91911449
5.915935597
5.912761003
5.909590647
5.906424473
5.903262427
5.900104457
5.896950517
5.893800566
5.89065456
5.887512459
5.884374226
5.881239821
5.878109208
5.874982349
5.871859205
5.86873974
5.865623919
5.862511706
5.859403071
5.856297981
5.853196406
5.850098317
5.847003687
5.843912486
5.84082469
5.837740274
5.834659217
5.831581505
5.828507127
5.825436076
5.822368349
5.819303947
5.816242874
5.813185137
5.810130748
5.80707973
5.80403212
5.800987971
5.797947361
5.794910396
5.791877213
5.788847999
5.785823005
5.782802557
5.779787095
5.776777193
5.773773618
5.770777385
5.767789851
5.764812826
5.761848728
5.758900798
5.755973379
5.75307229
5.750205329
5.747382999
5.744619357
5.741933228
5.739349761
5.736902457
5.734635846
5.73260898
5.730899885
5.729611083
5.728876287
5.728868241
5.729807334
5.731970157
5.73569661
5.741393378
5.749530623
5.760627287
5.775219089
5.793803553
5.816759986
5.996846592
5.993549548
5.990256673
5.98696828
5.983684609
5.980405869
5.977132227
5.973863781
5.970600583
5.967342646
5.964089964
5.960842507
5.957600233
5.95436309
5.95113102
5.94790396
5.944681845
5.941464607
5.938252177
5.935044487
5.931841467
5.928643051
5.925449172
5.922259763
5.91907476
5.915894101
5.912717725
5.909545573
5.906377588
5.903213717
5.900053909
5.896898117
5.893746297
5.890598407
5.887454407
5.884314256
5.881177918
5.878045355
5.874916531
5.87179141
5.868669956
5.865552135
5.862437915
5.859327265
5.856220153
5.853116552
5.850016431
5.846919764
5.843826523
5.840736683
5.83765022
5.834567112
5.831487339
5.828410886
5.825337738
5.822267883
5.81920131
5.81613801
5.813077979
5.810021211
5.806967711
5.803917491
5.800870575
5.797827005
5.794786843
5.791750182
5.788717152
5.785687941
5.782662809
5.779642098
5.776626277
5.773615983
5.770612089
5.767615775
5.76462865
5.761652892
5.758691458
5.755748346
5.752828939
5.749940526
5.747092889
5.744299166
5.741576949
5.738949712
5.736448654
5.734115069
5.732003355
5.730184763
5.728751945
5.727824258
5.727553705
5.728131094
5.729791628
5.732818672
5.737543891
5.7443413
5.753612165
5.76575739
5.781134835
5.800001848
5.996845737
5.993547758
5.990253881
5.986964415
5.983679601
5.980399655
5.977124747
5.973854988
5.97059044
5.967331131
5.964077062
5.960828214
5.957584548
5.954346018
5.951112567
5.947884132
5.944660647
5.941442044
5.938228252
5.935019203
5.931814824
5.928615047
5.925419804
5.922229028
5.919042653
5.915860616
5.912682856
5.909509313
5.906339932
5.903174657
5.900013439
5.896856229
5.893702982
5.890553655
5.887408207
5.884266597
5.881128789
5.877994743
5.874864424
5.871737797
5.868614826
5.865495478
5.862379721
5.859267522
5.856158852
5.853053681
5.849951978
5.846853716
5.843758866
5.840667401
5.837579293
5.834494517
5.831413048
5.828334862
5.825259934
5.822188242
5.819119762
5.81605447
5.812992342
5.809933354
5.806877487
5.803824723
5.800775052
5.797728474
5.794685003
5.791644673
5.788607552
5.785573742
5.782543416
5.779516813
5.776494301
5.773476391
5.770463766
5.767457405
5.764458687
5.761469526
5.758492557
5.755531393
5.752590955
5.749677949
5.746801425
5.743973575
5.74121075
5.738534772
5.735974602
5.733568452
5.731366406
5.729433612
5.72785405
5.72673479
5.726210554
5.726448143
5.727650034
5.730056065
5.733941728
5.739611266
5.747383488
5.757568423
5.770433832
5.786162781
5.996845063
5.99354635
5.990251685
5.986961369
5.983675643
5.980394727
5.977118793
5.973847964
5.970582311
5.967321872
5.96406666
5.960816661
5.957571845
5.954332167
5.951097574
5.947868004
5.944643392
5.94142367
5.938208765
5.934998608
5.931793127
5.928592251
5.92539591
5.922204038
5.919016566
5.915833432
5.912654574
5.909479931
5.906309446
5.903143065
5.899980736
5.896822411
5.893668042
5.890517586
5.887371
5.884228243
5.881089276
5.877954061
5.87482256
5.871694738
5.868570559
5.865449989
5.862332995
5.859219544
5.856109604
5.853003143
5.84990013
5.846800534
5.843704324
5.840611469
5.837521937
5.834435696
5.831352715
5.828272961
5.825196399
5.822122995
5.81905271
5.815985503
5.812921333
5.809860153
5.806801918
5.80374658
5.800694093
5.797644414
5.794597509
5.791553354
5.788511945
5.785473311
5.782437523
5.779404724
5.77637515
5.773349167
5.770327334
5.767310447
5.764299614
5.761296481
5.75830338
5.755323554
5.752361482
5.749423308
5.746517393
5.743655053
5.740851507
5.738127085
5.735508758
5.733032027
5.730743246
5.728702376
5.726986159
5.725691595
5.724939507
5.724877764
5.725683553
5.727563759
5.730752304
5.735503056
5.742076928
5.750722106
5.761647225
5.774988976
5.996844535
5.993545245
5.990249961
5.986958974
5.983672526
5.980390835
5.977114079
5.973842386
5.970575837
5.96731448
5.964058334
5.960807393
5.957561633
5.954321014
5.951085484
5.947854985
5.944629451
5.941408814
5.938193004
5.934981947
5.931775573
5.928573809
5.925376585
5.922183833
5.918995484
5.915811475
5.912631742
5.909456225
5.906284866
5.90311761
5.899954405
5.8967952
5.893639947
5.890488602
5.887341121
5.884197461
5.881057583
5.877921447
5.874789015
5.87166025
5.868535116
5.865413577
5.862295598
5.859181146
5.856070187
5.852962686
5.84985861
5.846757925
5.843660597
5.840566589
5.837475866
5.834388389
5.831304119
5.828223016
5.825145033
5.822070125
5.818998238
5.815929317
5.812863299
5.80980012
5.806739706
5.803681982
5.800626867
5.797574279
5.794524135
5.791476358
5.78843088
5.785387654
5.782346666
5.779307958
5.776271648
5.77323798
5.770207344
5.767180378
5.764158024
5.76114163
5.758133242
5.755135785
5.752153343
5.749191563
5.746258199
5.743363807
5.740522635
5.737753746
5.735082431
5.732541931
5.730175518
5.728038919
5.726203043
5.724756883
5.723810357
5.723496704
5.723973864
5.725424062
5.728050661
5.73207122
5.737705838
5.745160175
5.754603401
5.766142525
5.996844125
5.993544388
5.990248623
5.986957115
5.983670103
5.980387803
5.977110399
5.973838021
5.97057076
5.967308669
5.964051775
5.960800079
5.95755356
5.954312182
5.951075898
5.947844651
5.944618375
5.941397004
5.938180467
5.934968691
5.931761603
5.928559132
5.925361206
5.922167756
5.918978713
5.915794013
5.912613591
5.909437387
5.906265343
5.903097401
5.89993351
5.896773618
5.893617676
5.890465638
5.887317459
5.884173097
5.88103251
5.877895658
5.874762501
5.871633003
5.868507125
5.86538483
5.862266084
5.859150849
5.85603909
5.852930771
5.849825856
5.846724309
5.843626091
5.840531161
5.83743948
5.834351003
5.831265685
5.828183476
5.825104322
5.822028165
5.818954939
5.815884576
5.812816995
5.809752112
5.806689832
5.803630053
5.800572663
5.797517545
5.794464574
5.791413625
5.788364573
5.785317306
5.782271734
5.779227806
5.776185545
5.773145067
5.770106652
5.767070765
5.764038185
5.761010088
5.757988217
5.754975225
5.751974875
5.748992401
5.746035046
5.743112741
5.740238938
5.737431675
5.734714884
5.732119997
5.729687834
5.727470783
5.725535191
5.723963847
5.722858311
5.722340732
5.722554635
5.723664019
5.725849973
5.729304007
5.734217437
5.740766526
5.749093794
5.759286896
5.996843815
5.99354374
5.990247611
5.986955709
5.983668268
5.980385505
5.977107604
5.973834702
5.970566891
5.967304233
5.964046759
5.960794476
5.957547366
5.954305399
5.951068527
5.947836697
5.944609844
5.941387901
5.938170799
5.934958464
5.931750823
5.928547805
5.925349336
5.922155348
5.918965772
5.91578054
5.91259959
5.90942286
5.906250291
5.903081826
5.899917411
5.896756995
5.893600528
5.890447964
5.887299255
5.88415436
5.881013235
5.87787584
5.874742134
5.871612079
5.868485637
5.865362769
5.862243439
5.85912761
5.856015242
5.8529063
5.849800745
5.846698537
5.843599635
5.840503996
5.837411574
5.834322322
5.831236187
5.828153112
5.825073037
5.821995894
5.818921607
5.815850094
5.812781262
5.80971501
5.806651224
5.803589779
5.80053054
5.797473358
5.794418075
5.791364525
5.788312538
5.785261945
5.782212594
5.779164361
5.776117177
5.773071067
5.770026187
5.766982914
5.763941857
5.760904043
5.75787104
5.754845222
5.751830101
5.748830595
5.745853543
5.742908378
5.740007935
5.737169456
5.734415828
5.731777092
5.729292196
5.727010989
5.724996376
5.723326496
5.72209669
5.721420926
5.721432194
5.722281303
5.724133402
5.727161583
5.731537084
5.737415967
5.744922776
5.754132461
5.996843592
5.993543274
5.990246885
5.986954698
5.983666948
5.980383851
5.97710559
5.973832306
5.970564095
5.967301023
5.964043125
5.960790411
5.957542868
5.954300467
5.951063163
5.947830903
5.944603626
5.941381263
5.938163746
5.934951001
5.931742955
5.928539536
5.925340671
5.922146289
5.918956323
5.915770705
5.912589371
5.909412258
5.906239308
5.903070463
5.899905669
5.896744874
5.893588027
5.890435081
5.887285991
5.88414071
5.880999197
5.87786141
5.874727309
5.871596853
5.868470004
5.865346723
5.862226972
5.859110712
5.855997906
5.852888513
5.849782494
5.846679807
5.843580408
5.840484252
5.83739129
5.83430147
5.831214735
5.828131024
5.825050269
5.821972395
5.81889732
5.81582495
5.812755184
5.809687905
5.806622986
5.803560286
5.80049965
5.797440905
5.794383869
5.791328343
5.788274123
5.785221
5.782168773
5.779117259
5.776066327
5.773015914
5.769966095
5.766917134
5.763869572
5.760824315
5.75778279
5.754747184
5.751720794
5.748708309
5.745716273
5.74275375
5.739833126
5.736971062
5.734189687
5.731518035
5.728993703
5.726664722
5.724591533
5.722848968
5.72152797
5.720736754
5.720600955
5.721262239
5.722874798
5.725599176
5.729593066
5.73499906
5.741929866
5.750452245
5.996843448
5.993542973
5.990246415
5.986954044
5.983666094
5.98038278
5.977104285
5.973830752
5.97056228
5.967298937
5.964040761
5.960787764
5.957539936
5.95429725
5.951059662
5.94782712
5.944599563
5.941376924
5.938159134
5.934946119
5.931737808
5.928534125
5.925335
5.922140362
5.91895014
5.915764269
5.912582684
5.909405322
5.906232123
5.903063031
5.899897989
5.896736947
5.893579854
5.89042666
5.88727732
5.88413179
5.880990025
5.877851983
5.874717625
5.871586908
5.868459795
5.865336246
5.862216221
5.859099683
5.855986591
5.852876904
5.849770583
5.846667585
5.843567862
5.840471368
5.837378052
5.83428786
5.831200731
5.828116601
5.825035398
5.821957042
5.818881445
5.815808507
5.812738119
5.809670157
5.806604483
5.803540944
5.800479373
5.797419581
5.794361368
5.791304515
5.788248797
5.785193972
5.782139816
5.779086103
5.776032665
5.772979376
5.76992626
5.766873473
5.763821509
5.760771175
5.757723917
5.754681754
5.751647808
5.748626605
5.745624492
5.742650306
5.739716139
5.736838276
5.734038354
5.731344754
5.728794204
5.726433557
5.724321673
5.722531259
5.72115045
5.720283797
5.720052276
5.72059179
5.722049662
5.724578618
5.72832797
5.733432033
5.739996314
5.748082651
5.996843377
5.993542825
5.990246184
5.986953723
5.983665674
5.980382253
5.977103643
5.973829987
5.970561386
5.967297909
5.964039595
5.960786459
5.95753849
5.954295662
5.951057933
5.947825251
5.944597555
5.94137478
5.938156854
5.934943706
5.931735262
5.928531449
5.925332196
5.92213743
5.918947082
5.915761086
5.912579376
5.909401891
5.906228569
5.903059355
5.899894192
5.896733028
5.893575812
5.890422496
5.887273034
5.88412738
5.880985491
5.877847324
5.874712839
5.871581994
5.868454751
5.86533107
5.86221091
5.859094234
5.855981001
5.85287117
5.8497647
5.846661547
5.843561664
5.840465003
5.837371513
5.834281136
5.831193812
5.828109474
5.825028048
5.821949453
5.818873595
5.815800375
5.812729676
5.809661372
5.806595321
5.803531362
5.800469322
5.797409005
5.794350202
5.791292683
5.788236213
5.785180535
5.782125413
5.779070598
5.776015915
5.772961199
5.769906468
5.766851803
5.763797688
5.76074479
5.757694605
5.754649083
5.751611289
5.748585659
5.74557844
5.742598358
5.739657367
5.736771563
5.733962338
5.731257752
5.728694104
5.726317669
5.72418653
5.722372357
5.72096191
5.720057957
5.719779207
5.720258771
5.721640652
5.724073809
5.727703534
5.73266018
5.739045826
5.746919973
5.996843377
5.993542825
5.990246184
5.986953723
5.983665674
5.980382253
5.977103643
5.973829987
5.970561386
5.967297909
5.964039595
5.960786459
5.95753849
5.954295662
5.951057933
5.947825251
5.944597555
5.94137478
5.938156854
5.934943706
5.931735262
5.928531449
5.925332196
5.92213743
5.918947082
5.915761086
5.912579376
5.909401891
5.906228569
5.903059355
5.899894192
5.896733028
5.893575812
5.890422496
5.887273034
5.88412738
5.880985491
5.877847324
5.874712839
5.871581994
5.868454751
5.86533107
5.86221091
5.859094234
5.855981001
5.85287117
5.8497647
5.846661547
5.843561664
5.840465003
5.837371513
5.834281136
5.831193812
5.828109474
5.825028048
5.821949453
5.818873595
5.815800375
5.812729676
5.809661372
5.806595321
5.803531362
5.800469322
5.797409005
5.794350202
5.791292683
5.788236213
5.785180535
5.782125413
5.779070598
5.776015915
5.772961199
5.769906468
5.766851803
5.763797688
5.76074479
5.757694605
5.754649083
5.751611289
5.748585659
5.74557844
5.742598358
5.739657367
5.736771563
5.733962338
5.731257752
5.728694104
5.726317669
5.72418653
5.722372357
5.72096191
5.720057957
5.719779207
5.720258771
5.721640652
5.724073809
5.727703534
5.73266018
5.739045826
5.746919973
5.996843448
5.993542973
5.990246415
5.986954044
5.983666094
5.98038278
5.977104285
5.973830752
5.97056228
5.967298937
5.964040761
5.960787764
5.957539936
5.95429725
5.951059662
5.94782712
5.944599563
5.941376924
5.938159134
5.934946119
5.931737808
5.928534125
5.925335
5.922140362
5.91895014
5.915764269
5.912582684
5.909405322
5.906232123
5.903063031
5.899897989
5.896736947
5.893579854
5.89042666
5.88727732
5.88413179
5.880990025
5.877851983
5.874717625
5.871586908
5.868459795
5.865336246
5.862216221
5.859099683
5.855986591
5.852876904
5.849770583
5.846667585
5.843567862
5.840471368
5.837378052
5.83428786
5.831200731
5.828116601
5.825035398
5.821957042
5.818881445
5.815808507
5.812738119
5.809670157
5.806604483
5.803540944
5.800479373
5.797419581
5.794361368
5.791304515
5.788248797
5.785193972
5.782139816
5.779086103
5.776032665
5.772979376
5.76992626
5.766873473
5.763821509
5.760771175
5.757723917
5.754681754
5.751647808
5.748626605
5.745624492
5.742650306
5.739716139
5.736838276
5.734038354
5.731344754
5.728794204
5.726433557
5.724321673
5.722531259
5.72115045
5.720283797
5.720052276
5.72059179
5.722049662
5.724578618
5.72832797
5.733432033
5.739996314
5.748082651
5.996843592
5.993543274
5.990246885
5.986954698
5.983666948
5.980383851
5.97710559
5.973832306
5.970564095
5.967301023
5.964043125
5.960790411
5.957542868
5.954300467
5.951063163
5.947830903
5.944603626
5.941381263
5.938163746
5.934951001
5.931742955
5.928539536
5.925340671
5.922146289
5.918956323
5.915770705
5.912589371
5.909412258
5.906239308
5.903070463
5.899905669
5.896744874
5.893588027
5.890435081
5.887285991
5.88414071
5.880999197
5.87786141
5.874727309
5.871596853
5.868470004
5.865346723
5.862226972
5.859110712
5.855997906
5.852888513
5.849782494
5.846679807
5.843580408
5.840484252
5.83739129
5.83430147
5.831214735
5.828131024
5.825050269
5.821972395
5.81889732
5.81582495
5.812755184
5.809687905
5.806622986
5.803560286
5.80049965
5.797440905
5.794383869
5.791328343
5.788274123
5.785221
5.782168773
5.779117259
5.776066327
5.773015914
5.769966095
5.766917134
5.763869572
5.760824315
5.75778279
5.754747184
5.751720794
5.748708309
5.745716273
5.74275375
5.739833126
5.736971062
5.734189687
5.731518035
5.728993703
5.726664722
5.724591533
5.722848968
5.72152797
5.720736754
5.720600955
5.721262239
5.722874798
5.725599176
5.729593066
5.73499906
5.741929866
5.750452245
5.996843815
5.99354374
5.990247611
5.986955709
5.983668268
5.980385505
5.977107604
5.973834702
5.970566891
5.967304233
5.964046759
5.960794476
5.957547366
5.954305399
5.951068527
5.947836697
5.944609844
5.941387901
5.938170799
5.934958464
5.931750823
5.928547805
5.925349336
5.922155348
5.918965772
5.91578054
5.91259959
5.90942286
5.906250291
5.903081826
5.899917411
5.896756995
5.893600528
5.890447964
5.887299255
5.88415436
5.881013235
5.87787584
5.874742134
5.871612079
5.868485637
5.865362769
5.862243439
5.85912761
5.856015242
5.8529063
5.849800745
5.846698537
5.843599635
5.840503996
5.837411574
5.834322322
5.831236187
5.828153112
5.825073037
5.821995894
5.818921607
5.815850094
5.812781262
5.80971501
5.806651224
5.803589779
5.80053054
5.797473358
5.794418075
5.791364525
5.788312538
5.785261945
5.782212594
5.779164361
5.776117177
5.773071067
5.770026187
5.766982914
5.763941857
5.760904043
5.75787104
5.754845222
5.751830101
5.748830595
5.745853543
5.742908378
5.740007935
5.737169456
5.734415828
5.731777092
5.729292196
5.727010989
5.724996376
5.723326496
5.72209669
5.721420926
5.721432194
5.722281303
5.724133402
5.727161583
5.731537084
5.737415967
5.744922777
5.754132461
5.996844125
5.993544388
5.990248623
5.986957115
5.983670103
5.980387803
5.977110399
5.973838021
5.97057076
5.967308669
5.964051775
5.960800079
5.95755356
5.954312182
5.951075898
5.947844651
5.944618375
5.941397004
5.938180467
5.934968691
5.931761603
5.928559132
5.925361206
5.922167756
5.918978713
5.915794013
5.912613591
5.909437387
5.906265343
5.903097401
5.89993351
5.896773618
5.893617676
5.890465638
5.887317459
5.884173097
5.88103251
5.877895658
5.874762501
5.871633003
5.868507125
5.86538483
5.862266084
5.859150849
5.85603909
5.852930771
5.849825856
5.846724309
5.843626091
5.840531161
5.83743948
5.834351003
5.831265685
5.828183476
5.825104322
5.822028165
5.818954939
5.815884576
5.812816995
5.809752112
5.806689832
5.803630053
5.800572663
5.797517545
5.794464574
5.791413625