/*--------------------------------*- C++ -*----------------------------------*\
  =========                 |
  \\      /  F ield         | OpenFOAM: The Open Source CFD Toolbox
   \\    /   O peration     | Website:  https://openfoam.org
    \\  /    A nd           | Version:  8
     \\/     M anipulation  |
\*---------------------------------------------------------------------------*/
FoamFile
{
    version     2.0;
    format      ascii;
    class       volScalarField;
    location    "751";
    object      nut;
}
// * * * * * * * * * * * * * * * * * * * * * * * * * * * * * * * * * * * * * //

dimensions      [0 2 -1 0 0 0 0];

internalField   nonuniform List<scalar> 
25600
(
7.854357284e-05
8.850783248e-05
9.77814273e-05
0.000106451219
0.0001145770591
0.0001222032502
0.0001293644142
0.0001360891142
0.0001424020252
0.0001483251973
0.0001538788272
0.0001590817462
0.0001639517392
0.000168505755
0.0001727600347
0.0001767301897
0.0001804312518
0.0001838777034
0.0001870834934
0.0001900620429
0.0001928262489
0.0001953884877
0.0001977606159
0.0001999539708
0.0002019793738
0.0002038471379
0.0002055670765
0.0002071485119
0.0002086002864
0.0002099307738
0.0002111478946
0.0002122591312
0.000213271543
0.0002141917815
0.000215026106
0.0002157804006
0.0002164601917
0.0002170706658
0.0002176166846
0.0002181028018
0.0002185332793
0.000218912104
0.0002192430029
0.0002195294582
0.0002197747211
0.0002199818258
0.0002201536025
0.0002202926898
0.0002204015468
0.0002204824645
0.0002205375762
0.0002205688686
0.0002205781917
0.0002205672673
0.0002205376982
0.0002204909758
0.0002204284879
0.0002203515256
0.0002202612903
0.0002201589002
0.0002200453966
0.0002199217499
0.0002197888655
0.0002196475889
0.000219498711
0.0002193429728
0.0002191810702
0.0002190136587
0.0002188413579
0.000218664756
0.0002184844141
0.0002183008706
0.0002181146466
0.0002179262521
0.0002177361925
0.0002175449736
0.0002173531072
0.0002171611193
0.0002169695589
0.0002167790089
0.0002165900975
0.0002164035127
0.0002162200191
0.0002160404804
0.000215865892
0.000215697415
0.0002155364205
0.0002153844841
0.0002152394307
0.0002150898629
0.0002149349103
0.0002147749405
0.0002146089065
0.0002144341987
0.0002142452473
0.0002140317383
0.0002137716291
0.0002134298494
0.0002128739867
0.0002120714814
0.001548402717
0.001165823148
0.0009553015531
0.0008194611563
0.0007234839851
0.000651666587
0.0005957682483
0.0005509880064
0.0005143282886
0.000483804638
0.0004580466955
0.0004360693949
0.0004171462601
0.0004007279355
0.0003863863881
0.0003737857661
0.0003626576375
0.0003527842152
0.000343986838
0.0003361173394
0.0003290522146
0.0003226877516
0.0003169355981
0.0003117205259
0.0003069782787
0.0003026536831
0.0002986990779
0.0002950731486
0.0002917399617
0.0002886682228
0.0002858306495
0.0002832033389
0.000280765257
0.0002784978816
0.0002763848786
0.0002744118715
0.0002725661863
0.0002708365644
0.0002692130076
0.0002676866654
0.0002662497022
0.0002648951654
0.0002636168763
0.0002624093399
0.0002612676693
0.0002601875086
0.0002591650016
0.0002581966675
0.0002572794469
0.0002564106019
0.0002555876956
0.0002548085606
0.0002540712699
0.0002533741079
0.0002527155469
0.0002520942279
0.0002515089447
0.0002509586267
0.0002504423232
0.0002499591953
0.0002495085061
0.0002490896097
0.0002487019397
0.0002483450022
0.0002480183687
0.0002477216706
0.0002474545931
0.0002472168712
0.0002470082823
0.0002468286447
0.0002466778201
0.000246555719
0.0002464623216
0.0002463976573
0.0002463617527
0.0002463546608
0.0002463764821
0.0002464273688
0.000246507528
0.0002466172281
0.0002467568025
0.0002469266579
0.0002471272776
0.0002473592726
0.0002476235275
0.0002479209038
0.0002482528419
0.0002486261308
0.000249044576
0.0002494882435
0.0002499551628
0.0002504418002
0.0002509428899
0.000251448429
0.0002519424971
0.0002524079485
0.0002527952125
0.0002530686907
0.0002532350059
0.0002534076176
0.002398410515
0.002318231566
0.002224486207
0.002125376865
0.002025943652
0.00192919271
0.001836805028
0.001749607382
0.001667905337
0.001591685032
0.001520754885
0.001454824925
0.001393565996
0.001336637973
0.001283697834
0.00123442192
0.001188509402
0.00114568259
0.001105687173
0.001068290132
0.001033280112
0.001000466016
0.0009696736208
0.000940744595
0.0009135353637
0.0008879156137
0.0008637667189
0.0008409805623
0.0008194584853
0.000799110616
0.0007798549564
0.0007616162846
0.0007443252918
0.0007279183841
0.0007123365472
0.0006975257605
0.0006834366748
0.0006700233821
0.0006572434352
0.0006450577341
0.000633430175
0.0006223273187
0.0006117181475
0.0006015738796
0.000591867789
0.0005825750164
0.0005736724778
0.0005651387021
0.000556953555
0.0005490983699
0.0005415557541
0.0005343095594
0.0005273447479
0.0005206472298
0.0005142038052
0.0005080021303
0.0005020306722
0.0004962785792
0.0004907356621
0.0004853924338
0.0004802400756
0.0004752703714
0.0004704756602
0.0004658488049
0.0004613831657
0.0004570725753
0.0004529113166
0.0004488941056
0.0004450160699
0.0004412727435
0.0004376600148
0.0004341740253
0.0004308115198
0.0004275703209
0.0004244481945
0.0004214433112
0.0004185543607
0.0004157806048
0.0004131219423
0.0004105790191
0.0004081533902
0.000405847611
0.0004036651268
0.0004016106724
0.0003996905668
0.0003979139397
0.0003963353366
0.0003949117059
0.0003935791897
0.0003923448302
0.0003912130643
0.0003902014979
0.0003893224654
0.0003886159163
0.0003881338356
0.0003879509783
0.0003882314392
0.0003891113836
0.0003908310179
0.000393902645
0.002446393656
0.002440142439
0.002429882411
0.002415540253
0.002397286683
0.002375440954
0.002350403573
0.002322608512
0.002292492715
0.002260475122
0.002226945836
0.002192259637
0.002156731404
0.002120637335
0.002084217973
0.002047680146
0.002011199632
0.001974924342
0.001938977587
0.001903460438
0.001868455454
0.001834029797
0.001800236228
0.001767115363
0.001734697653
0.001703004992
0.00167205188
0.001641846606
0.001612392035
0.00158368742
0.001555729383
0.001528510749
0.001502021705
0.001476250701
0.001451184435
0.001426808461
0.001403108123
0.001380067228
0.001357669147
0.001335897233
0.001314734696
0.001294164633
0.001274170112
0.001254734322
0.00123584065
0.001217472728
0.001199614398
0.001182249829
0.001165363695
0.001148940905
0.001132967012
0.001117427891
0.00110230982
0.001087599514
0.001073283952
0.001059350724
0.001045787498
0.001032582606
0.001019724821
0.001007203449
0.0009950083075
0.0009831296816
0.0009715583184
0.0009602854348
0.0009493027261
0.0009386023757
0.0009281770676
0.0009180200139
0.0009081249178
0.0008984862249
0.0008890988932
0.0008799583404
0.0008710608447
0.0008624041434
0.0008539863875
0.0008458067365
0.0008378655434
0.0008301645334
0.0008227070167
0.0008154980559
0.0008085448645
0.0008018560784
0.0007954450068
0.0007893283429
0.0007835569221
0.0007782098595
0.0007730706924
0.0007681521689
0.0007634742494
0.0007590696993
0.0007549889268
0.0007512743153
0.0007480091554
0.0007452546619
0.0007431340646
0.0007418301184
0.000741596916
0.0007428225214
0.0007457789967
0.0007517839494
0.002448615677
0.002447967412
0.002446891259
0.002445234788
0.002442863259
0.002439664738
0.002435552005
0.002430462355
0.002424356162
0.002417214633
0.002409037217
0.002399838924
0.002389647497
0.002378500819
0.002366444785
0.002353531316
0.002339816535
0.002325359215
0.002310219474
0.002294457653
0.002278133507
0.002261305646
0.002244030878
0.002226363781
0.002208356404
0.002190058135
0.002171515523
0.002152772376
0.002133869809
0.002114845697
0.00209573493
0.002076570065
0.002057381196
0.002038195916
0.002019039468
0.00199993466
0.001980902234
0.001961961342
0.001943129268
0.001924421448
0.001905851696
0.001887432344
0.00186917436
0.001851087446
0.001833180136
0.001815459884
0.001797933144
0.00178060543
0.001763481411
0.001746564907
0.001729858679
0.001713365776
0.001697088567
0.001681028589
0.001665187226
0.001649565159
0.00163416355
0.001618982275
0.001604021046
0.001589279533
0.001574757264
0.00156045363
0.001546367937
0.001532499456
0.00151884747
0.001505411322
0.001492190462
0.001479184505
0.001466393249
0.00145381692
0.001441456078
0.001429311712
0.001417385442
0.00140567976
0.001394197931
0.001382944219
0.001371924155
0.001361144831
0.001350615324
0.001340347279
0.001330356012
0.00132066149
0.001311285478
0.001302294444
0.001293678773
0.001285323819
0.001277249671
0.001269482549
0.001262056676
0.001255016637
0.001248420671
0.001242349205
0.001236904962
0.001232239226
0.001228549041
0.001226106864
0.001225295068
0.001226623864
0.001230792051
0.001238531985
0.002448720188
0.002448431337
0.00244810709
0.00244772393
0.002447254165
0.002446667245
0.002445930975
0.002445012704
0.002443880376
0.002442503396
0.00244085329
0.002438904194
0.002436633211
0.002434020618
0.002431049962
0.002427708077
0.002423985022
0.002419873965
0.002415371007
0.00241047499
0.002405187271
0.002399511501
0.002393453381
0.002387020424
0.00238022172
0.002373067722
0.002365570032
0.002357741213
0.002349594616
0.002341144159
0.002332404149
0.002323389202
0.002314114144
0.002304593878
0.002294843284
0.002284877118
0.002274709942
0.002264356139
0.002253829836
0.002243144813
0.002232314471
0.002221351806
0.002210269393
0.00219907937
0.002187793425
0.002176422795
0.002164978256
0.002153470136
0.002141908307
0.002130302315
0.002118661177
0.002106993274
0.002095306731
0.002083609314
0.002071908473
0.002060211132
0.002048523897
0.002036853331
0.002025205605
0.002013586537
0.002002001687
0.001990456397
0.001978955817
0.001967504941
0.001956108646
0.001944771728
0.001933498949
0.001922295086
0.001911164981
0.001900113638
0.001889146273
0.001878268399
0.00186748594
0.001856805381
0.001846233877
0.001835779416
0.001825451031
0.00181525905
0.001805215387
0.001795333794
0.001785629877
0.001776124129
0.001766869212
0.001757848757
0.00174901609
0.001740392212
0.001732003334
0.001723882576
0.001716072194
0.001708627371
0.00170162055
0.001695147673
0.001689334341
0.001684344483
0.001680395049
0.001677776651
0.001676871226
0.001678160939
0.001682218784
0.001689654354
0.002448724355
0.002448456406
0.002448186182
0.002447911197
0.002447627942
0.002447331831
0.002447017158
0.002446677158
0.002446304134
0.002445889608
0.002445424473
0.002444899143
0.002444303729
0.002443628196
0.002442862509
0.002441996772
0.002441021345
0.002439926963
0.002438704826
0.002437346684
0.002435844894
0.002434192477
0.002432383144
0.002430411332
0.002428272205
0.002425961667
0.002423476347
0.002420813589
0.002417971434
0.002414948586
0.00241174439
0.002408358792
0.002404792309
0.002401045991
0.002397121384
0.002393020491
0.002388745732
0.002384299914
0.002379686195
0.002374908043
0.002369969198
0.002364873645
0.002359625578
0.002354229371
0.002348689553
0.002343010777
0.002337197802
0.00233125547
0.002325188685
0.002319002405
0.002312701613
0.002306291269
0.002299776327
0.002293161739
0.002286452443
0.002279653334
0.002272769263
0.002265805097
0.002258765685
0.002251655831
0.002244480299
0.002237243827
0.002229951138
0.002222606944
0.00221521597
0.002207782966
0.002200312735
0.002192810162
0.002185280244
0.002177728138
0.002170159212
0.002162579098
0.002154993778
0.002147409667
0.002139833726
0.002132273579
0.002124737679
0.002117235493
0.002109777735
0.002102376671
0.002095047
0.002087818499
0.002080689051
0.002073640034
0.002066688653
0.002059856021
0.002053168504
0.002046659306
0.0020403706
0.00203435679
0.002028688677
0.002023458695
0.002018787273
0.002014830429
0.002011789305
0.00200992165
0.00200955111
0.002011067334
0.00201490166
0.002021471788
0.002448723901
0.002448456494
0.002448189291
0.0024479221
0.002447654589
0.002447386259
0.002447116377
0.002446843939
0.002446567662
0.002446285977
0.002445997028
0.002445698666
0.002445388464
0.002445063731
0.002444721535
0.002444358718
0.002443971928
0.00244355765
0.002443112234
0.002442631932
0.002442112931
0.002441551381
0.00244094343
0.00244028525
0.002439573072
0.002438803204
0.00243797206
0.00243707618
0.002436112246
0.002435077103
0.002433967774
0.002432781471
0.002431515602
0.00243016778
0.002428735823
0.002427217766
0.002425611857
0.002423916558
0.002422130544
0.002420252702
0.002418282124
0.002416218109
0.002414060151
0.002411807938
0.002409461342
0.002407020414
0.002404485375
0.002401856608
0.002399134653
0.002396320197
0.002393414065
0.002390417215
0.002387330727
0.0023841558
0.002380893743
0.002377545973
0.002374114006
0.00237059946
0.00236700405
0.002363329585
0.002359577962
0.002355751172
0.002351851299
0.002347880523
0.002343841127
0.002339735508
0.002335566185
0.002331335814
0.002327047212
0.002322703379
0.002318307529
0.00231386313
0.002309373955
0.002304844138
0.002300278252
0.002295681401
0.002291059332
0.002286418581
0.002281766659
0.002277112408
0.002272469248
0.002267845392
0.002263231143
0.002258638365
0.002254081569
0.002249578776
0.002245152692
0.002240832195
0.002236654281
0.002232666769
0.00222893184
0.002225530297
0.002222566532
0.002220173951
0.002218520748
0.002217815784
0.002218311374
0.002220297116
0.002224076877
0.002229923363
0.00244872341
0.002448455533
0.002448188018
0.002447920895
0.002447654164
0.00244738781
0.00244712178
0.002446855961
0.002446590179
0.002446324197
0.002446057713
0.002445790348
0.002445521642
0.002445251048
0.002444977932
0.002444701563
0.002444421119
0.002444135677
0.002443844225
0.002443545656
0.002443238778
0.002442922314
0.002442594913
0.002442255151
0.002441901541
0.002441532542
0.002441146564
0.002440741981
0.002440317134
0.002439870343
0.002439399918
0.002438904167
0.0024383814
0.00243782994
0.002437248126
0.002436634326
0.00243598694
0.002435304407
0.00243458521
0.002433827881
0.002433031006
0.002432193232
0.002431313268
0.00243038989
0.002429421942
0.00242840834
0.002427348072
0.002426240203
0.00242508387
0.00242387829
0.002422622756
0.002421316637
0.002419959388
0.002418550538
0.002417089695
0.002415576549
0.002414010866
0.002412392493
0.002410721355
0.002408997458
0.00240722089
0.002405391826
0.002403510526
0.002401577344
0.002399592726
0.002397557224
0.002395471496
0.002393336326
0.002391152625
0.002388921461
0.00238664407
0.002384321886
0.002381956576
0.00237955008
0.002377104664
0.002374622988
0.002372108193
0.002369564005
0.002366994888
0.002364406327
0.002361806737
0.002359190995
0.002356566225
0.002353941362
0.00235132768
0.002348739525
0.002346195333
0.002343718934
0.002341341226
0.002339102341
0.002337054395
0.002335264738
0.002333819546
0.002332827519
0.002332423197
0.002332769147
0.002334054844
0.002336488671
0.002340278814
0.002345599815
0.002448723043
0.002448454768
0.002448186847
0.002447919335
0.002447652268
0.002447385679
0.00244711959
0.002446854
0.002446588894
0.002446324239
0.002446059988
0.00244579608
0.002445532434
0.002445268951
0.00244500551
0.002444741967
0.002444478149
0.002444213856
0.002443948856
0.002443682887
0.002443415649
0.002443146813
0.002442876009
0.002442602835
0.002442326849
0.002442047577
0.002441764508
0.002441477095
0.002441184759
0.00244088689
0.002440582848
0.002440271964
0.002439953547
0.002439626877
0.002439291216
0.002438945805
0.002438589868
0.002438222618
0.002437843253
0.002437450962
0.00243704493
0.002436624338
0.002436188369
0.002435736204
0.002435267032
0.00243478005
0.002434274462
0.002433749485
0.002433204351
0.002432638306
0.002432050617
0.002431440571
0.002430807478
0.002430150673
0.002429469519
0.002428763406
0.002428031752
0.002427274009
0.002426489663
0.002425678232
0.002424839275
0.002423972395
0.002423077235
0.00242215349
0.002421200907
0.00242021929
0.002419208509
0.002418168505
0.002417099301
0.002416001014
0.00241487387
0.002413718226
0.002412534588
0.002411323649
0.002410086324
0.002408823804
0.00240753762
0.002406229732
0.002404902675
0.002403560594
0.002402202744
0.002400832516
0.002399455113
0.002398077312
0.002396707939
0.00239535851
0.002394044086
0.002392784377
0.002391605119
0.002390539803
0.00238963177
0.002388936605
0.002388524648
0.002388483315
0.002388918722
0.0023899558
0.002391735506
0.002394407045
0.002398112857
0.002402965073
0.002448722764
0.002448454186
0.002448185945
0.002447918098
0.002447650689
0.002447383757
0.002447117331
0.002446851425
0.002446586044
0.002446321185
0.002446056839
0.002445792992
0.002445529625
0.002445266714
0.002445004233
0.002444742146
0.002444480416
0.002444218996
0.002443957833
0.002443696865
0.002443436021
0.002443175222
0.002442914376
0.002442653382
0.002442392125
0.002442130478
0.002441868301
0.00244160544
0.002441341727
0.002441076979
0.002440811
0.002440543578
0.002440274488
0.002440003488
0.002439730322
0.002439454721
0.002439176398
0.002438895054
0.002438610376
0.002438322037
0.002438029699
0.002437733011
0.002437431611
0.002437125128
0.002436813182
0.002436495382
0.002436171333
0.002435840631
0.002435502867
0.002435157629
0.002434804499
0.00243444306
0.002434072893
0.002433693579
0.002433304703
0.002432905848
0.002432496605
0.002432076568
0.002431645338
0.002431202522
0.00243074774
0.002430280623
0.002429800815
0.002429307982
0.002428801806
0.002428281995
0.002427748286
0.002427200451
0.002426638303
0.002426061704
0.002425470581
0.002424864934
0.002424244859
0.002423610571
0.002422962435
0.002422301007
0.002421627089
0.002420941799
0.002420246675
0.002419543294
0.002418832861
0.002418118451
0.002417404194
0.002416695601
0.002415999994
0.002415327058
0.00241468957
0.002414104317
0.002413593227
0.002413184739
0.002412915389
0.002412831542
0.002412991082
0.002413464774
0.002414336824
0.002415704
0.002417672349
0.002420350346
0.002423837336
0.002428207006
0.00244872255
0.002448453738
0.002448185246
0.002447917134
0.002447649448
0.002447382226
0.0024471155
0.00244684929
0.002446583603
0.002446318442
0.002446053804
0.002445789684
0.002445526072
0.002445262955
0.002445000321
0.002444738154
0.002444476438
0.002444215154
0.002443954283
0.002443693804
0.002443433693
0.002443173924
0.002442914471
0.002442655302
0.002442396385
0.002442137683
0.002441879156
0.00244162076
0.002441362448
0.002441104168
0.002440845862
0.00244058747
0.002440328925
0.002440070156
0.002439811084
0.002439551624
0.002439291688
0.002439031177
0.002438769988
0.00243850801
0.002438245126
0.002437981212
0.002437716136
0.00243744976
0.002437181941
0.002436912527
0.00243664136
0.002436368276
0.002436093106
0.002435815673
0.002435535795
0.002435253286
0.002434967954
0.002434679604
0.002434388036
0.002434093047
0.002433794428
0.002433491971
0.002433185464
0.002432874693
0.002432559445
0.002432239505
0.002431914665
0.002431584718
0.002431249462
0.002430908707
0.002430562271
0.002430209989
0.002429851719
0.002429487343
0.002429116778
0.002428739987
0.002428356996
0.002427967914
0.002427572954
0.002427172475
0.002426767022
0.002426357391
0.002425944752
0.002425529997
0.002425115052
0.002424702558
0.002424296097
0.002423900488
0.002423522167
0.00242316968
0.002422854302
0.002422590804
0.002422398389
0.002422301774
0.002422332398
0.002422529667
0.002422942069
0.002423627894
0.002424655184
0.002426100414
0.002428045256
0.00243057077
0.002433748517
0.002437628736
0.002448722382
0.002448453387
0.002448184699
0.002447916377
0.002447648468
0.002447381012
0.002447114041
0.002446847577
0.002446581631
0.002446316208
0.002446051307
0.002445786926
0.002445523055
0.002445259687
0.002444996809
0.00244473441
0.002444472476
0.002444210992
0.002443949946
0.002443689322
0.002443429106
0.002443169281
0.002442909833
0.002442650746
0.002442392004
0.00244213359
0.002441875486
0.002441617676
0.002441360141
0.002441102862
0.00244084582
0.002440588992
0.002440332358
0.002440075894
0.002439819575
0.002439563375
0.002439307264
0.002439051212
0.002438795186
0.002438539149
0.002438283065
0.002438026891
0.002437770585
0.0024375141
0.002437257387
0.002437000393
0.002436743064
0.002436485339
0.002436227157
0.002435968454
0.00243570916
0.002435449203
0.00243518851
0.002434927001
0.002434664595
0.002434401208
0.002434136752
0.002433871137
0.002433604268
0.002433336049
0.002433066381
0.002432795164
0.002432522297
0.002432247679
0.002431971209
0.002431692791
0.002431412334
0.002431129752
0.002430844976
0.00243055795
0.002430268646
0.002429977067
0.002429683254
0.002429387315
0.002429089444
0.002428789952
0.002428489306
0.002428188183
0.002427887482
0.002427588381
0.002427292647
0.002427002696
0.002426721804
0.002426454376
0.002426206289
0.00242598533
0.002425801725
0.002425668805
0.002425603768
0.002425628557
0.002425770784
0.002426064632
0.00242655157
0.002427280676
0.002428308239
0.002429696284
0.00243150959
0.002433810821
0.002436653591
0.002440073746
0.00244872225
0.002448453111
0.002448184269
0.002447915781
0.002447647694
0.002447380049
0.00244711288
0.002446846208
0.002446580049
0.002446314409
0.002446049289
0.002445784688
0.002445520598
0.002445257013
0.00244499392
0.002444731308
0.002444469166
0.002444207478
0.002443946232
0.002443685414
0.00244342501
0.002443165007
0.00244290539
0.002442646147
0.002442387264
0.002442128729
0.002441870529
0.002441612652
0.002441355085
0.002441097817
0.002440840836
0.00244058413
0.002440327689
0.002440071501
0.002439815554
0.002439559837
0.002439304337
0.002439049042
0.002438793939
0.002438539014
0.002438284253
0.00243802964
0.00243777516
0.002437520795
0.002437266528
0.00243701234
0.00243675821
0.002436504118
0.002436250041
0.002435995954
0.002435741833
0.002435487649
0.002435233375
0.00243497898
0.002434724431
0.002434469695
0.002434214735
0.002433959513
0.002433703988
0.002433448118
0.002433191859
0.002432935163
0.002432677983
0.002432420272
0.00243216198
0.002431903061
0.00243164347
0.002431383168
0.002431122124
0.00243086032
0.002430597757
0.002430334463
0.002430070505
0.002429805997
0.002429541121
0.002429276167
0.002429011571
0.002428747954
0.002428486148
0.002428227348
0.002427973212
0.002427726
0.002427488775
0.002427265646
0.002427062084
0.002426885307
0.00242674476
0.002426652677
0.002426624729
0.00242668074
0.002426845414
0.002427148983
0.002427627672
0.002428323752
0.002429284967
0.002430563047
0.002432211014
0.002434279072
0.002436809076
0.00243982788
0.002448722147
0.002448452894
0.002448183931
0.002447915312
0.002447647084
0.002447379289
0.00244711196
0.002446845121
0.002446578789
0.002446312972
0.002446047673
0.002445782891
0.002445518621
0.002445254856
0.002444991586
0.002444728798
0.002444466481
0.002444204622
0.002443943206
0.002443682221
0.002443421652
0.002443161485
0.002442901708
0.002442642307
0.002442383269
0.002442124583
0.002441866236
0.002441608216
0.002441350514
0.002441093117
0.002440836017
0.002440579203
0.002440322667
0.002440066398
0.00243981039
0.002439554632
0.002439299118
0.002439043838
0.002438788785
0.002438533949
0.002438279324
0.0024380249
0.002437770669
0.002437516622
0.00243726275
0.002437009044
0.002436755494
0.00243650209
0.002436248821
0.002435995675
0.002435742641
0.002435489705
0.002435236855
0.002434984074
0.002434731347
0.002434478657
0.002434225986
0.002433973311
0.002433720613
0.002433467866
0.002433215046
0.002432962125
0.002432709074
0.002432455864
0.002432202463
0.002431948842
0.002431694971
0.002431440825
0.002431186385
0.002430931641
0.002430676601
0.002430421295
0.002430165785
0.002429910181
0.002429654658
0.002429399471
0.002429145018
0.002428891876
0.002428640847
0.002428393059
0.002428150073
0.00242791402
0.002427687788
0.002427475248
0.002427281544
0.002427113451
0.002426979793
0.002426891947
0.002426864398
0.002426915335
0.00242706723
0.002427347324
0.002427787908
0.002428426221
0.002429303783
0.002430464955
0.002431954506
0.002433814103
0.002436077763
0.002438766588
0.002448722066
0.002448452726
0.002448183668
0.002447914948
0.00244764661
0.002447378696
0.002447111241
0.00244684427
0.0024465778
0.002446311842
0.002446046399
0.002445781473
0.002445517058
0.002445253149
0.002444989735
0.002444726805
0.002444464348
0.00244420235
0.002443940797
0.002443679677
0.002443418974
0.002443158675
0.002442898767
0.002442639236
0.00244238007
0.002442121256
0.002441862783
0.002441604639
0.002441346812
0.002441089293
0.002440832072
0.002440575139
0.002440318485
0.002440062102
0.002439805981
0.002439550115
0.002439294496
0.002439039116
0.002438783968
0.002438529045
0.002438274341
0.002438019847
0.002437765557
0.002437511465
0.002437257563
0.002437003843
0.0024367503
0.002436496924
0.002436243709
0.002435990646
0.002435737726
0.002435484939
0.002435232275
0.002434979724
0.002434727273
0.00243447491
0.002434222618
0.002433970383
0.002433718186
0.002433466007
0.002433213826
0.002432961618
0.002432709357
0.002432457018
0.00243220457
0.002431951985
0.002431699233
0.002431446286
0.002431193123
0.002430939728
0.002430686101
0.002430432259
0.002430178255
0.002429924178
0.00242967018
0.002429416495
0.002429163473
0.002428911648
0.002428661777
0.002428414922
0.002428172553
0.002427936689
0.002427710069
0.00242749637
0.002427300473
0.002427128794
0.002426989673
0.002426893813
0.002426854781
0.002426889508
0.002427018769
0.002427267553
0.00242766522
0.002428245303
0.002429044804
0.002430102808
0.002431458276
0.002433146977
0.002435197636
0.002437627605
0.002448722006
0.002448452599
0.00244818347
0.002447914673
0.002447646251
0.002447378247
0.002447110696
0.002446843623
0.002446577047
0.002446310979
0.002446045425
0.002445780386
0.002445515859
0.002445251837
0.002444988311
0.002444725271
0.002444462704
0.002444200598
0.002443938939
0.002443677713
0.002443416907
0.002443156505
0.002442896496
0.002442636865
0.002442377599
0.002442118686
0.002441860115
0.002441601873
0.002441343949
0.002441086334
0.002440829016
0.002440571987
0.002440315238
0.002440058759
0.002439802542
0.002439546581
0.002439290866
0.00243903539
0.002438780147
0.002438525129
0.002438270329
0.002438015741
0.002437761358
0.002437507173
0.00243725318
0.002436999371
0.002436745739
0.002436492277
0.002436238978
0.002435985834
0.002435732835
0.002435479973
0.002435227238
0.002434974618
0.002434722103
0.002434469677
0.002434217328
0.002433965038
0.002433712788
0.002433460559
0.002433208327
0.002432956067
0.002432703752
0.002432451352
0.002432198834
0.002431946165
0.00243169331
0.002431440235
0.002431186908
0.002430933304
0.002430679408
0.002430425226
0.002430170789
0.002429916174
0.002429661503
0.002429406987
0.002429152944
0.002428899858
0.002428648444
0.002428399704
0.002428155035
0.002427916361
0.002427686301
0.002427468378
0.002427267267
0.002427089107
0.002426941862
0.002426835728
0.002426783572
0.002426801387
0.002426908684
0.002427128792
0.00242748893
0.002428019954
0.002428755632
0.002429731318
0.002430981923
0.002432539161
0.002434428184
0.002436663878
0.002448721962
0.002448452508
0.002448183328
0.002447914475
0.002447645993
0.002447377924
0.002447110303
0.002446843156
0.002446576503
0.002446310355
0.00244604472
0.002445779598
0.002445514987
0.002445250883
0.002444987274
0.002444724153
0.002444461506
0.002444199321
0.002443937583
0.00244367628
0.002443415398
0.002443154921
0.002442894837
0.002442635133
0.002442375795
0.00244211681
0.002441858167
0.002441599854
0.00244134186
0.002441084174
0.002440826786
0.002440569687
0.002440312867
0.002440056318
0.002439800031
0.002439543998
0.002439288211
0.002439032664
0.002438777348
0.002438522257
0.002438267383
0.00243801272
0.002437758261
0.002437503999
0.002437249927
0.002436996038
0.002436742324
0.00243648878
0.002436235396
0.002435982163
0.002435729074
0.002435476119
0.002435223286
0.002434970564
0.002434717942
0.002434465403
0.002434212933
0.002433960513
0.002433708124
0.002433455743
0.002433203345
0.002432950903
0.002432698386
0.00243244576
0.002432192989
0.002431940034
0.002431686854
0.002431433409
0.002431179658
0.002430925566
0.002430671107
0.00243041627
0.002430161072
0.002429905569
0.002429649872
0.002429394167
0.002429138748
0.002428884063
0.002428630785
0.002428379874
0.002428132667
0.002427891016
0.002427657454
0.002427435386
0.002427229337
0.002427045244
0.002426890799
0.002426775829
0.002426712704
0.002426716743
0.002426806567
0.002427004334
0.002427335768
0.002427829867
0.002428518176
0.002429433507
0.002430608033
0.002432070764
0.002433844495
0.002435942521
0.002448721934
0.002448452449
0.002448183236
0.002447914347
0.002447645826
0.002447377714
0.002447110048
0.002446842853
0.002446576149
0.002446309949
0.00244604426
0.002445779084
0.00244551442
0.00244525026
0.002444986598
0.002444723423
0.002444460723
0.002444198485
0.002443936697
0.002443675343
0.00244341441
0.002443153885
0.002442893752
0.002442634
0.002442374614
0.002442115582
0.002441856893
0.002441598533
0.002441340493
0.002441082761
0.002440825327
0.002440568182
0.002440311317
0.002440054721
0.002439798388
0.002439542309
0.002439286476
0.002439030881
0.002438775518
0.002438520378
0.002438265455
0.002438010743
0.002437756233
0.002437501919
0.002437247794
0.002436993851
0.002436740082
0.002436486479
0.002436233035
0.002435979741
0.002435726587
0.002435473563
0.002435220658
0.00243496786
0.002434715156
0.00243446253
0.002434209965
0.002433957442
0.002433704941
0.002433452437
0.002433199904
0.002432947311
0.002432694626
0.002432441811
0.002432188829
0.002431935635
0.002431682186
0.002431428433
0.002431174334
0.002430919843
0.002430664929
0.002430409568
0.002430153767
0.00242989756
0.002429641051
0.002429384407
0.002429127924
0.002428872017
0.002428617327
0.002428364779
0.002428115672
0.002427871814
0.002427635677
0.002427410593
0.002427200985
0.002427012661
0.002426853135
0.002426731996
0.002426661293
0.002426655914
0.002426733908
0.002426916687
0.002427229027
0.002427698756
0.002428356022
0.002429232052
0.002430357328
0.00243175919
0.002433459003
0.002435469099
0.00244872192
0.00244845242
0.00244818319
0.002447914284
0.002447645744
0.002447377611
0.002447109922
0.002446842704
0.002446575975
0.002446309749
0.002446044034
0.002445778831
0.002445514139
0.002445249953
0.002444986264
0.002444723062
0.002444460336
0.002444198073
0.002443936258
0.00244367488
0.002443413922
0.002443153372
0.002442893216
0.002442633439
0.00244237403
0.002442114975
0.002441856262
0.00244159788
0.002441339817
0.002441082062
0.002440824606
0.002440567438
0.00244031055
0.002440053932
0.002439797576
0.002439541474
0.002439285618
0.00243903
0.002438774613
0.00243851945
0.002438264503
0.002438009765
0.00243775523
0.002437500891
0.00243724674
0.002436992769
0.002436738972