/*--------------------------------*- C++ -*----------------------------------*\
  =========                 |
  \\      /  F ield         | OpenFOAM: The Open Source CFD Toolbox
   \\    /   O peration     | Website:  https://openfoam.org
    \\  /    A nd           | Version:  8
     \\/     M anipulation  |
\*---------------------------------------------------------------------------*/
FoamFile
{
    version     2.0;
    format      ascii;
    class       volScalarField;
    location    "751";
    object      omega;
}
// * * * * * * * * * * * * * * * * * * * * * * * * * * * * * * * * * * * * * //

dimensions      [0 0 -1 0 0 0 0];

internalField   nonuniform List<scalar> 
25600
(
99678.53782
112324.0388
124093.0269
135095.737
145408.1257
155086.417
164174.5491
172708.7708
180720.3968
188237.4108
195285.4441
201888.3949
208068.8342
213848.2713
219247.3174
224285.7851
228982.7506
233356.5936
237425.0164
241205.0515
244713.0663
247964.7673
250975.2017
253758.7573
256329.1676
258699.5206
260882.2704
262889.2478
264731.6742
266420.1769
267964.8077
269375.0624
270659.8999
271827.7615
272886.591
273843.8556
274706.5689
275481.3129
276174.2577
276791.1822
277337.4951
277818.2561
278238.1952
278601.7316
278912.9913
279175.825
279393.8243
279570.338
279708.487
279811.1784
279881.1199
279920.8327
279932.6644
279918.8004
279881.2747
279821.98
279742.6775
279645.0057
279530.4894
279400.5476
279256.5017
279099.5834
278930.9417
278751.6497
278562.7109
278365.0657
278159.5974
277947.1378
277728.4733
277504.3503
277275.4809
277042.5485
276806.2143
276567.1254
276325.9235
276083.2503
275839.7554
275596.1062
275352.9997
275111.1754
274871.4306
274634.6385
274401.7692
274173.9192
273952.3515
273738.5398
273534.2239
273341.4036
273157.3185
272967.5041
272770.8559
272567.8405
272357.1291
272135.4099
271895.6143
271624.6531
271294.5522
270860.8044
270155.3669
269136.9188
3889.908554
5202.545383
6407.163011
7551.329555
8660.870956
9750.390564
10828.80988
11902.10504
12974.07278
14047.15628
15122.71256
16201.48111
17283.59752
18368.69184
19456.29607
20545.62984
21635.72331
22725.50399
23813.83034
24899.54705
25981.44613
27058.30015
28128.98014
29192.38519
30247.4349
31293.0891
32328.37482
33352.38839
34364.30008
35363.34551
36348.81597
37320.08081
38276.60183
39217.92019
40143.65902
41053.50067
41947.17821
42824.5062
43685.36732
44529.69138
45357.45392
46168.67957
46963.44073
47741.85353
48504.07356
49250.29345
49980.74205
50695.66759
51395.3594
52080.12498
52750.28757
53406.18507
54048.1697
54676.60904
55291.88334
55894.38165
56484.4997
57062.63936
57629.20434
58184.59336
58729.19739
59263.39941
59787.57282
60302.07853
60807.26198
61303.45027
61790.94894
62270.03843
62740.97008
63203.96255
63659.19944
64106.82699
64546.9295
64979.49631
65404.4613
65821.67652
66230.88697
66631.71137
67023.61905
67405.90014
67777.62776
68137.61394
68484.34611
68815.86605
69129.47785
69422.15945
69689.69486
69921.08885
70109.20046
70277.8174
70420.3979
70528.45869
70590.25591
70588.69281
70498.53025
70284.0977
69886.33739
69233.27452
68227.18244
66818.31111
2500.757893
2586.790066
2695.909343
2822.360109
2962.316445
3113.07817
3272.684649
3439.703172
3613.058804
3791.947285
3975.747557
4163.977145
4356.234094
4552.190987
4751.600707
4954.244635
5159.924913
5368.462172
5579.689329
5793.45576
6009.62121
6228.038654
6448.569347
6671.078178
6895.430146
7121.489278
7349.121577
7578.193769
7808.576032
8040.138337
8272.744026
8506.259524
8740.557807
8975.513817
9211.011363
9446.935508
9683.164772
9919.590889
10156.11232
10392.62859
10629.04167
10865.25753
11101.1867
11336.74419
11571.8493
11806.42667
12040.4028
12273.71181
12506.29271
12738.08668
12969.03827
13199.09473
13428.20665
13656.32941
13883.42256
14109.4492
14334.37566
14558.17214
14780.81133
15002.26589
15222.50821
15441.51061
15659.24487
15875.68118
16090.7871
16304.52634
16516.85744
16727.73198
16937.0929
17144.87128
17350.98642
17555.3473
17757.84011
17958.30769
18156.57639
18352.43475
18545.62505
18735.83372
18922.67898
19105.69748
19284.32702
19457.88758
19625.54673
19786.27879
19938.79802
20081.4959
20208.98656
20324.48793
20433.4477
20534.15118
20624.23809
20701.29776
20761.67389
20801.79739
20816.27533
20798.72427
20743.51427
20638.47399
20468.36699
20231.22798
2451.335424
2456.333053
2465.46811
2478.92911
2496.697355
2518.631533
2544.522085
2574.128029
2607.198293
2643.486155
2682.75509
2724.782838
2769.365759
2816.317848
2865.468511
2916.662121
2969.757309
3024.625726
3081.150606
3139.226739
3198.757899
3259.654463
3321.834732
3385.223796
3449.752387
3515.356111
3581.975207
3649.554054
3718.039311
3787.377149
3857.518192
3928.41738
4000.032292
4072.3218
4145.247623
4218.772143
4292.861261
4367.483332
4442.606284
4518.198281
4594.228512
4670.667402
4747.486521
4824.658561
4902.157276
4979.957263
5058.034545
5136.365818
5214.92846
5293.700767
5372.663121
5451.79394
5531.071567
5610.476101
5689.9875
5769.587514
5849.25543
5928.974009
6008.726783
6088.496403
6168.264813
6248.013377
6327.722665
6407.372144
6486.939867
6566.402102
6645.732912
6724.90357
6803.882369
6882.632596
6961.113319
7039.279069
7117.075356
7194.432188
7271.273468
7347.509994
7423.036038
7497.72571
7571.428195
7643.962447
7715.109853
7784.595925
7852.116149
7917.280614
7979.335767
8037.103897
8093.120286
8147.117875
8198.750643
8247.694889
8293.573174
8335.641444
8373.209421
8404.832818
8429.333069
8445.493191
8451.977474
8447.890051
8429.531502
8405.555093
2449.087672
2448.403109
2448.151694
2448.489174
2449.554855
2451.467059
2454.321491
2458.191883
2463.131736
2469.176636
2476.346612
2484.648441
2494.07827
2504.623814
2516.265866
2528.979742
2542.736692
2557.5051
2573.251419
2589.941007
2607.538652
2626.008858
2645.316384
2665.426571
2686.305585
2707.920443
2730.23925
2753.230971
2776.865388
2801.113883
2825.949317
2851.345226
2877.276051
2903.717339
2930.645688
2958.039062
2985.876471
3014.137251
3042.801594
3071.850734
3101.266751
3131.032465
3161.131383
3191.547677
3222.266153
3253.27223
3284.551915
3316.09184
3347.879126
3379.901359
3412.144822
3444.596951
3477.246406
3510.08196
3543.093098
3576.268471
3609.599806
3643.078029
3676.693317
3710.435494
3744.294277
3778.259273
3812.319887
3846.465197
3880.683821
3914.963768
3949.292269
3983.65557
4018.038807
4052.425176
4086.796147
4121.131036
4155.406157
4189.593943
4223.663039
4257.577262
4291.294399
4324.764893
4357.930117
4390.720207
4423.054679
4454.849525
4485.98823
4516.199979
4545.44873
4574.142093
4602.193743
4629.502675
4655.952798
4681.415347
4705.738352
4728.755956
4750.267865
4770.108551
4788.136025
4804.325825
4818.881979
4832.316394
4845.698147
4860.447843
2448.978473
2447.928025
2446.914718
2445.96232
2445.098936
2444.355671
2443.765244
2443.360823
2443.175077
2443.239404
2443.5833
2444.233886
2445.215639
2446.550251
2448.256527
2450.35036
2452.844808
2455.75023
2459.074451
2462.822949
2466.999046
2471.604087
2476.637645
2482.097726
2487.980973
2494.282817
2500.997659
2508.118993
2515.639504
2523.551307
2531.846145
2540.515351
2549.549878
2558.940424
2568.67752
2578.751641
2589.153251
2599.872723
2610.900403
2622.226732
2633.842279
2645.737751
2657.903995
2670.332015
2683.012982
2695.938244
2709.099336
2722.487975
2736.096059
2749.915467
2763.938309
2778.157206
2792.564762
2807.153664
2821.916677
2836.846938
2851.937839
2867.182397
2882.57381
2898.10545
2913.770725
2929.563021
2945.475658
2961.501849
2977.634645
2993.86687
3010.191047
3026.599314
3043.083327
3059.634085
3076.241829
3092.895879
3109.584399
3126.294108
3143.010061
3159.715337
3176.390627
3193.013771
3209.55922
3225.997713
3242.296665
3258.414402
3274.248086
3289.828315
3305.251775
3320.489552
3335.510372
3350.280682
3364.766024
3378.935377
3392.764009
3406.240156
3419.371566
3432.198667
3444.82521
3457.464354
3470.48213
3484.435142
3500.092083
3518.391955
2448.971952
2447.898095
2446.828131
2445.76461
2444.711175
2443.672606
2442.654739
2441.664398
2440.709306
2439.797978
2438.939564
2438.143687
2437.420289
2436.77949
2436.231435
2435.786154
2435.453445
2435.242768
2435.163164
2435.223182
2435.430824
2435.793495
2436.317974
2437.010398
2437.876256
2438.920384
2440.146978
2441.559596
2443.161181
2444.954095
2446.940166
2449.120704
2451.496512
2454.067924
2456.834839
2459.796762
2462.952836
2466.30185
2469.84227
2473.572278
2477.489808
2481.592572
2485.878081
2490.343671
2494.986521
2499.803673
2504.792055
2509.948485
2515.269696
2520.752312
2526.392882
2532.187983
2538.134168
2544.227921
2550.46567
2556.843841
2563.358874
2570.007092
2576.784747
2583.688086
2590.713335
2597.856673
2605.114216
2612.481999
2619.955957
2627.531892
2635.205452
2642.972085
2650.827001
2658.76511
2666.780964
2674.868687
2683.021882
2691.233524
2699.49585
2707.800234
2716.137032
2724.495406
2732.863139
2741.226428
2749.569173
2757.856281
2766.097664
2774.328761
2782.540184
2790.723097
2798.870197
2806.976686
2815.042059
2823.073514
2831.090349
2839.129957
2847.255951
2855.568932
2864.222093
2873.442018
2883.548951
2894.968253
2908.211659
2923.820215
2448.970895
2447.894878
2446.820273
2445.747351
2444.676524
2443.608406
2442.543811
2441.483768
2440.429562
2439.382756
2438.345198
2437.319023
2436.306637
2435.310717
2434.334183
2433.380176
2432.452025
2431.553222
2430.687391
2429.858256
2429.069609
2428.32528
2427.629103
2426.98489
2426.396408
2425.867348
2425.401306
2425.001762
2424.672062
2424.415406
2424.234837
2424.133238
2424.113308
2424.177564
2424.328333
2424.567754
2424.897771
2425.320137
2425.836409
2426.447954
2427.155956
2427.961418
2428.865171
2429.867878
2430.970038
2432.171994
2433.47394
2434.875925
2436.377859
2437.979518
2439.680551
2441.480505
2443.378824
2445.374847
2447.467803
2449.656833
2451.940989
2454.31922
2456.790368
2459.353189
2462.006358
2464.748461
2467.577993
2470.493353
2473.492839
2476.574637
2479.73681
2482.977286
2486.293842
2489.684078
2493.145397
2496.674974
2500.269726
2503.926272
2507.640888
2511.409469
2515.227477
2519.089894
2522.991177
2526.925084
2530.881384
2534.857404
2538.873089
2542.926945
2547.018468
2551.14887
2555.322105
2559.546187
2563.835054
2568.211388
2572.710469
2577.38503
2582.311285
2587.59599
2593.384725
2599.871358
2607.304993
2615.987481
2626.251861
2638.414784
2448.970333
2447.893644
2446.818176
2445.744005
2444.671209
2443.599894
2442.530184
2441.462223
2440.396187
2439.332304
2438.270863
2437.212226
2436.156833
2435.105207
2434.057964
2433.015809
2431.979544
2430.950059
2429.928341
2428.915463
2427.912588
2426.920957
2425.941888
2424.976767
2424.027043
2423.094218
2422.179841
2421.285499
2420.412806
2419.563401
2418.738935
2417.941069
2417.17146
2416.431754
2415.723581
2415.048546
2414.408226
2413.804158
2413.23784
2412.71072
2412.224198
2411.779619
2411.378271
2411.021381
2410.710115
2410.445574
2410.228791
2410.060734
2409.942298
2409.87431
2409.857527
2409.892638
2409.980268
2410.120974
2410.315242
2410.563489
2410.866066
2411.223253
2411.635255
2412.102205
2412.624168
2413.201139
2413.833041
2414.519721
2415.260954
2416.05643
2416.90576
2417.808462
2418.763963
2419.771588
2420.830551
2421.939952
2423.098765
2424.305831
2425.559849
2426.859377
2428.20283
2429.58849
2431.014524
2432.478914
2433.977826
2435.523192
2437.116447
2438.760095
2440.458155
2442.216829
2444.045469
2445.957851
2447.973854
2450.121723
2452.441035
2454.986287
2457.831046
2461.072405
2464.835356
2469.276285
2474.583232
2480.968943
2488.651889
2497.82151
2448.969933
2447.892803
2446.816859
2445.74217
2444.668786
2443.596758
2442.526131
2441.456938
2440.389205
2439.322961
2438.258241
2437.195091
2436.133571
2435.07376
2434.015757
2432.959682
2431.905684
2430.853936
2429.804643
2428.758042
2427.714403
2426.674028
2425.637257
2424.604464
2423.576059
2422.552488
2421.534231
2420.521801
2419.515747
2418.516647
2417.525111
2416.541778
2415.567313
2414.602406
2413.647765
2412.70412
2411.772218
2410.852815
2409.946683
2409.054598
2408.177343
2407.315705
2406.470471
2405.642427
2404.832354
2404.041027
2403.269213
2402.517667
2401.78713
2401.078329
2400.391974
2399.728759
2399.089356
2398.47442
2397.884581
2397.320446
2396.782595
2396.271582
2395.787929
2395.332128
2394.90464
2394.505896
2394.13629
2393.796184
2393.485903
2393.205732
2392.955921
2392.736674
2392.548157
2392.390491
2392.263756
2392.167987
2392.103182
2392.069306
2392.066299
2392.094092
2392.152633
2392.241923
2392.362026
2392.512263
2392.698037
2392.922196
2393.187888
2393.499501
2393.863111
2394.287102
2394.783014
2395.366661
2396.05954
2396.890634
2397.898638
2399.134543
2400.664403
2402.571998
2404.96084
2407.954721
2411.695265
2416.334284
2422.018474
2428.86501
2448.969632
2447.892173
2446.815877
2445.740815
2444.667038
2443.594594
2442.523519
2441.453836
2440.385555
2439.318682
2438.253219
2437.189168
2436.126528
2435.065302
2434.005494
2432.947114
2431.890176
2430.8347
2429.780712
2428.728247
2427.677349
2426.62807
2425.580476
2424.534642
2423.490655
2422.448617
2421.408641
2420.370856
2419.335404
2418.302445
2417.272151
2416.244713
2415.220335
2414.199237
2413.181656
2412.167841
2411.158056
2410.152581
2409.151707
2408.155738
2407.164992
2406.179796
2405.20049
2404.227425
2403.260958
2402.301457
2401.349297
2400.40486
2399.468531
2398.540703
2397.62177
2396.712132
2395.812188
2394.922342
2394.042994
2393.174547
2392.317397
2391.471942
2390.638572
2389.817671
2389.009618
2388.214787
2387.433544
2386.666246
2385.913244
2385.174879
2384.451482
2383.743379
2383.050886
2382.374316
2381.713981
2381.070193
2380.443281
2379.833592
2379.24152
2378.667519
2378.112148
2377.576108
2377.060301
2376.566414
2376.097618
2375.656724
2375.247484
2374.874915
2374.545725
2374.268871
2374.056297
2373.923879
2373.892592
2373.989937
2374.251607
2374.723322
2375.462636
2376.540429
2378.041589
2380.064207
2382.716288
2386.10873
2390.343389
2395.495924
2448.969399
2447.891686
2446.815119
2445.739767
2444.665683
2443.592916
2442.521502
2441.451464
2440.382816
2439.315563
2438.249704
2437.185235
2436.122151
2435.060441
2434.000098
2432.941111
2431.883472
2430.827171
2429.772201
2428.718556
2427.666233
2426.615229
2425.565546
2424.517187
2423.470161
2422.424478
2421.380154
2420.337208
2419.295665
2418.255556
2417.216917
2416.179788
2415.144219
2414.110264
2413.077982
2412.047442
2411.018718
2409.99189
2408.967045
2407.944278
2406.92369
2405.905389
2404.88949
2403.876117
2402.865397
2401.857468
2400.852471
2399.850556
2398.851878
2397.856598
2396.864884
2395.876908
2394.892848
2393.912889
2392.937219
2391.966031
2390.99952
2390.037887
2389.081336
2388.13007
2387.184298
2386.244232
2385.310084
2384.382071
2383.460411
2382.545328
2381.637048
2380.735808
2379.841849
2378.955426
2378.07681
2377.206294
2376.34421
2375.490937
2374.646924
2373.812719
2372.989004
2372.176649
2371.376732
2370.59139
2369.822778
2369.073743
2368.348056
2367.650711
2366.988317
2366.369601
2365.806045
2365.312687
2364.90908
2364.620428
2364.478843
2364.524642
2364.807521
2365.387314
2366.333955
2367.726112
2369.647827
2372.182478
2375.403536
2379.362272
2448.969218
2447.891306
2446.814525
2445.738944
2444.664615
2443.591589
2442.519901
2441.449579
2440.380637
2439.313083
2438.246918
2437.18214
2436.118742
2435.056714
2433.996046
2432.936726
2431.878741
2430.822078
2429.766723
2428.712663
2427.659886
2426.608378
2425.558129
2424.509127
2423.461362
2422.414827
2421.369513
2420.325414
2419.282527
2418.240848
2417.200378
2416.161118
2415.123072
2414.086246
2413.050648
2412.016289
2410.983182
2409.951343
2408.92079
2407.891544
2406.863629
2405.837072
2404.811903
2403.788155
2402.765864
2401.74507
2400.725815
2399.708146
2398.692112
2397.677766
2396.665164
2395.654366
2394.645435
2393.638438
2392.633444
2391.630526
2390.629761
2389.631226
2388.635004
2387.64118
2386.649839
2385.661073
2384.674977
2383.691646
2382.711186
2381.733702
2380.759311
2379.788136
2378.820317
2377.856003
2376.895374
2375.938634
2374.986022
2374.037836
2373.094454
2372.156358
2371.224177
2370.29874
2369.3812
2368.47317
2367.576663
2366.694353
2365.829796
2364.987708
2364.174319
2363.397825
2362.668946
2362.001606
2361.413733
2360.92817
2360.573634
2360.38565
2360.407297
2360.689524
2361.290727
2362.275196
2363.709981
2365.659801
2368.179808
2371.306519
2448.969075
2447.891007
2446.814058
2445.738295
2444.663772
2443.590536
2442.518628
2441.448074
2440.378893
2439.311092
2438.244678
2437.179647
2436.115995
2435.053713
2433.992791
2432.933216
2431.874976
2430.818056
2429.762442
2428.70812
2427.655075
2426.603293
2425.55276
2424.503461
2423.455384
2422.408517
2421.362846
2420.318361
2419.27505
2418.232905
2417.191916
2416.152075
2415.113375
2414.07581
2413.039375
2412.004065
2410.969876
2409.936807
2408.904855
2407.874019
2406.844301
2405.815702
2404.788223
2403.76187
2402.736647
2401.712559
2400.689615
2399.667823
2398.647194
2397.627737
2396.609467
2395.592397
2394.576542
2393.561919
2392.548547
2391.536443
2390.525629
2389.516125
2388.507954
2387.501139
2386.495704
2385.491676
2384.489083
2383.487953
2382.488319
2381.490219
2380.493693
2379.498792
2378.505574
2377.514116
2376.524512
2375.536888
2374.551406
2373.568282
2372.587796
2371.610342
2370.636456
2369.666866
2368.702612
2367.74506
2366.796044
2365.85803
2364.934316
2364.029291
2363.148762
2362.300357
2361.494023
2360.742611
2360.062556
2359.474611
2359.004605
2358.68412
2358.55095
2358.649153
2359.028431
2359.742555
2360.846528
2362.392288
2364.422918
2366.965728
2448.968963
2447.890772
2446.813691
2445.737785
2444.663107
2443.589705
2442.51762
2441.44688
2440.377503
2439.309503
2438.242885
2437.177648
2436.113788
2435.051299
2433.990169
2432.930388
2431.871943
2430.814818
2429.759001
2428.704476
2427.651228
2426.599242
2425.548505
2424.499001
2423.450716
2422.403638
2421.357753
2420.313048
2419.269512
2418.227133
2417.1859
2416.145804
2415.106833
2414.06898
2413.032236
2411.996593
2410.962042
2409.928577
2408.896191
2407.864878
2406.834631
2405.805444
2404.777313
2403.750232
2402.724198
2401.699206
2400.675252
2399.652333
2398.630447
2397.609589
2396.589758
2395.570951
2394.553166
2393.5364
2392.520653
2391.505921
2390.492203
2389.479494
2388.467792
2387.457094
2386.447394
2385.438689
2384.430974
2383.424245
2382.418497
2381.413728
2380.40994
2379.407137
2378.405334
2377.404556
2376.404844
2375.406269
2374.408931
2373.412985
2372.41865
2371.426231
2370.436182
2369.449147
2368.46603
2367.488056
2366.516907
2365.554859
2364.60498
2363.671371
2362.75946
2361.87638
2361.031408
2360.236485
2359.506797
2358.861391
2358.323778
2357.922431
2357.691067
2357.668524
2357.898053
2358.425785
2359.298179
2360.558339
2362.241259
2364.368347
2448.968875
2447.89059
2446.813407
2445.73739
2444.662591
2443.589058
2442.516833
2441.445945
2440.376414
2439.308255
2438.241473
2437.17607
2436.112044
2435.049388
2433.988092
2432.928145
2431.869534
2430.812246
2429.756266
2428.70158
2427.648171
2426.596026
2425.54513
2424.495467
2423.447024
2422.399788
2421.353744
2420.30888
2419.265183
2418.222643
2417.181246
2416.140984
2415.101845
2414.063819
2413.026898
2411.991072
2410.956332
2409.92267
2408.890077
2407.858546
2406.82807
2405.798639
2404.770248
2403.742888
2402.716553
2401.691235
2400.666928
2399.643624
2398.621315
2397.599995
2396.579656
2395.560289
2394.541886
2393.524438
2392.507935
2391.492367
2390.477722
2389.463987
2388.451148
2387.43919
2386.428094
2385.417842
2384.408415
2383.39979
2382.391944
2381.384855
2380.378501
2379.372861
2378.367921
2377.363675
2376.360133
2375.357324
2374.355313
2373.354205
2372.354171
2371.355468
2370.358472
2369.363756
2368.372134
2367.384729
2366.403096
2365.429365
2364.466421
2363.518128
2362.589613
2361.687608
2360.820855
2360.00057
2359.240955
2358.559724
2357.978597
2357.523679
2357.225613
2357.119362
2357.243457
2357.638528
2358.344987
2359.399815
2360.832529
2362.66068
2448.96881
2447.890452
2446.813192
2445.73709
2444.6622
2443.588568
2442.516235
2441.445234
2440.375584
2439.307301
2438.240393
2437.174862
2436.110707
2435.04792
2433.986494
2432.926418
2431.867679
2430.810264
2429.754158
2428.699346
2427.645813
2426.593545
2425.542526
2424.492741
2423.444177
2422.39682
2421.350656
2420.305671
2419.261855
2418.219194
2417.177677
2416.137293
2415.098032
2414.059884
2413.022838
2411.986886
2410.952018
2409.918226
2408.8855
2407.853833
2406.823217
2405.793642
2404.765101
2403.737586
2402.711089
2401.685602
2400.661116
2399.637623
2398.615114
2397.59358
2396.573011
2395.553397
2394.534726
2393.516987
2392.500167
2391.484251
2390.469224
2389.455068
2388.441763
2387.429288
2386.41762
2385.406731
2384.396593
2383.387176
2382.378444
2381.370364
2380.362899
2379.356014
2378.349676
2377.343859
2376.338548
2375.33375
2374.329497
2373.325869
2372.322996
2371.321098
2370.320508
2369.321734
2368.325525
2367.332933
2366.345418
2365.364998
2364.394416
2363.437361
2362.498727
2361.584944
2360.704344
2359.867594
2359.088153
2358.382737
2357.771731
2357.279491
2356.934412
2356.768647
2356.817346
2357.117242
2357.704526
2358.611964
2359.865373
2361.479773
2448.968762
2447.890353
2446.813038
2445.736875
2444.661918
2443.588215
2442.515805
2441.444721
2440.374985
2439.306612
2438.239611
2437.173986
2436.109735
2435.046853
2433.985332
2432.925161
2431.866328
2430.808819
2429.75262
2428.697716
2427.644092
2426.591734
2425.540625
2424.490752
2423.442099
2422.394654
2421.348402
2420.30333
2419.259427
2418.216679
2417.175075
2416.134604
2415.095256
2414.05702
2413.019886
2411.983844
2410.948887
2409.915003
2408.882186
2407.850425
2406.819713
2405.790042
2404.761402
2403.733785
2402.707183
2401.681588
2400.65699
2399.63338
2398.61075
2397.589087
2396.568383
2395.548626
2394.529803
2393.511901
2392.494904
2391.478798
2390.463563
2389.449179
2388.435625
2387.422874
2386.4109
2385.399672
2384.389155
2383.379313
2382.370106
2381.36149
2380.353421
2379.345854
2378.338744
2377.33205
2376.325744
2375.31981
2374.314263
2373.309156
2372.304602
2371.300793
2370.29803
2369.296778
2368.297738
2367.301908
2366.310685
2365.326002
2364.350504
2363.387753
2362.442477
2361.520885
2360.63102
2359.783155
2358.990219
2358.268217
2357.636594
2357.118474
2356.740682
2356.533428
2356.529531
2356.763072
2357.267395
2358.072448
2359.201616
2360.668282
2448.968732
2447.890289
2446.812938
2445.736736
2444.661736
2443.587986
2442.515526
2441.444388
2440.374595
2439.306163
2438.239102
2437.173415
2436.109102
2435.046157
2433.984573
2432.92434
2431.865445
2430.807874
2429.751614
2428.69665
2427.642967
2426.590549
2425.539381
2424.48945
2423.440739
2422.393236
2421.346927
2420.301799
2419.257838
2418.215034
2417.173373
2416.132846
2415.093441
2414.055147
2413.017956
2411.981857
2410.946842
2409.9129
2408.880023
2407.848202
2406.817429
2405.787695
2404.758992
2403.731311
2402.704643
2401.67898
2400.654312
2399.63063
2398.607923
2397.586182
2396.565396
2395.545552
2394.526636
2393.508636
2392.491534
2391.475314
2390.459956
2389.445438
2388.431737
2387.418824
2386.406671
2385.395244
2384.384506
2383.374416
2382.364929
2381.356
2380.347576
2379.339607
2378.332042
2377.32483
2376.317935
2375.311327
2374.305008
2373.299009
2372.293432
2371.288446
2370.284356
2369.28159
2368.280809
2367.282978
2366.289447
2365.302102
2364.323524
2363.357189
2362.407723
2361.481193
2360.585452
2359.730521
2358.92899
2358.196408
2357.551618
2357.016962
2356.618272
2356.384529
2356.347097
2356.538401
2356.990022
2357.73018
2358.780775
2360.154211
2448.968717
2447.890258
2446.812889
2445.736668
2444.661647
2443.587874
2442.515389
2441.444224
2440.374403
2439.305942
2438.238851
2437.173134
2436.10879
2435.045814
2433.984199
2432.923934
2431.865008
2430.807407
2429.751117
2428.696123
2427.64241
2426.589962
2425.538766
2424.488806
2423.440067
2422.392535
2421.346198
2420.301041
2419.257053
2418.21422
2417.172532
2416.131976
2415.092543
2414.054222
2413.017002
2411.980875
2410.945831
2409.91186
2408.878954
2407.847104
2406.816301
2405.786537
2404.757802
2403.73009
2402.703389
2401.677692
2400.65299
2399.629273
2398.60653
2397.584751
2396.563924
2395.544037
2394.525077
2393.507029
2392.489877
2391.473602
2390.458184
2389.443602
2388.42983
2387.41684
2386.404601
2385.393079
2384.382234
2383.372025
2382.362405
2381.353324
2380.344731
2379.336569
2378.328785
2377.321326
2376.31415
2375.307221
2374.300539
2373.294118
2372.288059
2371.2825
2370.277756
2369.274239
2368.272601
2367.273783
2366.279117
2365.290463
2364.31037
2363.342278
2362.390755
2361.461801
2360.563177
2359.70478
2358.899032
2358.16126
2357.510014
2356.967255
2356.55833
2356.311628
2356.257806
2356.428495
2356.854427
2357.562997
2358.575397
2359.903566
2448.968717
2447.890258
2446.812889
2445.736668
2444.661647
2443.587874
2442.515389
2441.444224
2440.374403
2439.305942
2438.238851
2437.173134
2436.10879
2435.045814
2433.984199
2432.923934
2431.865008
2430.807407
2429.751117
2428.696123
2427.64241
2426.589962
2425.538766
2424.488806
2423.440067
2422.392535
2421.346198
2420.301041
2419.257053
2418.21422
2417.172532
2416.131976
2415.092543
2414.054222
2413.017002
2411.980875
2410.945831
2409.91186
2408.878954
2407.847104
2406.816301
2405.786537
2404.757802
2403.73009
2402.703389
2401.677692
2400.65299
2399.629273
2398.60653
2397.584751
2396.563924
2395.544037
2394.525077
2393.507029
2392.489877
2391.473602
2390.458184
2389.443602
2388.42983
2387.41684
2386.404601
2385.393079
2384.382234
2383.372025
2382.362405
2381.353324
2380.344731
2379.336569
2378.328785
2377.321326
2376.31415
2375.307221
2374.300539
2373.294118
2372.288059
2371.2825
2370.277756
2369.274239
2368.272601
2367.273783
2366.279117
2365.290463
2364.31037
2363.342278
2362.390755
2361.461801
2360.563177
2359.70478
2358.899032
2358.16126
2357.510014
2356.967255
2356.55833
2356.311628
2356.257806
2356.428495
2356.854427
2357.562997
2358.575397
2359.903566
2448.968732
2447.890289
2446.812938
2445.736736
2444.661736
2443.587986
2442.515526
2441.444388
2440.374595
2439.306163
2438.239102
2437.173415
2436.109102
2435.046157
2433.984573
2432.92434
2431.865445
2430.807874
2429.751614
2428.69665
2427.642967
2426.590549
2425.539381
2424.48945
2423.440739
2422.393236
2421.346927
2420.301799
2419.257838
2418.215034
2417.173373
2416.132846
2415.093441
2414.055147
2413.017956
2411.981857
2410.946842
2409.9129
2408.880023
2407.848202
2406.817429
2405.787695
2404.758992
2403.731311
2402.704643
2401.67898
2400.654312
2399.63063
2398.607923
2397.586182
2396.565396
2395.545552
2394.526636
2393.508636
2392.491534
2391.475314
2390.459956
2389.445438
2388.431737
2387.418824
2386.406671
2385.395244
2384.384506
2383.374416
2382.364929
2381.356
2380.347576
2379.339607
2378.332042
2377.32483
2376.317935
2375.311327
2374.305008
2373.299009
2372.293432
2371.288446
2370.284356
2369.28159
2368.280809
2367.282978
2366.289447
2365.302102
2364.323524
2363.357189
2362.407723
2361.481193
2360.585452
2359.730521
2358.92899
2358.196408
2357.551618
2357.016962
2356.618272
2356.384529
2356.347097
2356.538401
2356.990022
2357.73018
2358.780775
2360.154211
2448.968762
2447.890353
2446.813038
2445.736875
2444.661918
2443.588215
2442.515805
2441.444721
2440.374985
2439.306612
2438.239611
2437.173986
2436.109735
2435.046853
2433.985332
2432.925161
2431.866328
2430.808819
2429.75262
2428.697716
2427.644092
2426.591734
2425.540625
2424.490752
2423.442099
2422.394654
2421.348402
2420.30333
2419.259427
2418.216679
2417.175075
2416.134604
2415.095256
2414.05702
2413.019886
2411.983844
2410.948887
2409.915003
2408.882186
2407.850425
2406.819713
2405.790042
2404.761402
2403.733785
2402.707183
2401.681588
2400.65699
2399.63338
2398.61075
2397.589087
2396.568383
2395.548626
2394.529803
2393.511901
2392.494904
2391.478798
2390.463563
2389.449179
2388.435625
2387.422874
2386.4109
2385.399672
2384.389155
2383.379313
2382.370106
2381.36149
2380.353421
2379.345854
2378.338744
2377.33205
2376.325744
2375.31981
2374.314263
2373.309156
2372.304602
2371.300793
2370.29803
2369.296778
2368.297738
2367.301908
2366.310685
2365.326002
2364.350504
2363.387753
2362.442477
2361.520885
2360.63102
2359.783155
2358.990219
2358.268217
2357.636594
2357.118474
2356.740682
2356.533428
2356.529531
2356.763072
2357.267395
2358.072448
2359.201616
2360.668282
2448.96881
2447.890452
2446.813192
2445.73709
2444.6622
2443.588568
2442.516235
2441.445234
2440.375584
2439.307301
2438.240393
2437.174862
2436.110707
2435.04792
2433.986494
2432.926418
2431.867679
2430.810264
2429.754158
2428.699346
2427.645813
2426.593545
2425.542526
2424.492741
2423.444177
2422.39682
2421.350656
2420.305671
2419.261855
2418.219194
2417.177677
2416.137293
2415.098032
2414.059884
2413.022838
2411.986886
2410.952018
2409.918226
2408.8855
2407.853833
2406.823217
2405.793642
2404.765101
2403.737586
2402.711089
2401.685602
2400.661116
2399.637623
2398.615114
2397.59358
2396.573011
2395.553397
2394.534726
2393.516987
2392.500167
2391.484251
2390.469224
2389.455068
2388.441763
2387.429288
2386.41762
2385.406731
2384.396593
2383.387176
2382.378444
2381.370364
2380.362899
2379.356014
2378.349676
2377.343859
2376.338548
2375.33375
2374.329497
2373.325869
2372.322996
2371.321098
2370.320508
2369.321734
2368.325525
2367.332933
2366.345418
2365.364998
2364.394416
2363.437361
2362.498727
2361.584944
2360.704344
2359.867594
2359.088153
2358.382737
2357.771731
2357.279491
2356.934412
2356.768647
2356.817346
2357.117242
2357.704526
2358.611964
2359.865373
2361.479773
2448.968875
2447.89059
2446.813407
2445.73739
2444.662591
2443.589058
2442.516833
2441.445945
2440.376414
2439.308255
2438.241473
2437.17607
2436.112044
2435.049388
2433.988092
2432.928145
2431.869534
2430.812246
2429.756266
2428.70158
2427.648171
2426.596026
2425.54513
2424.495467
2423.447024
2422.399788
2421.353744
2420.30888
2419.265183
2418.222643
2417.181246
2416.140984
2415.101845
2414.063819
2413.026898
2411.991072
2410.956332
2409.92267
2408.890077
2407.858546
2406.82807
2405.798639
2404.770248
2403.742888
2402.716553
2401.691235
2400.666928
2399.643624
2398.621315
2397.599995
2396.579656
2395.560289
2394.541886
2393.524438
2392.507935
2391.492367
2390.477722
2389.463987
2388.451148
2387.43919
2386.428094
2385.417842
2384.408415
2383.39979
2382.391944