/*--------------------------------*- C++ -*----------------------------------*\
  =========                 |
  \\      /  F ield         | OpenFOAM: The Open Source CFD Toolbox
   \\    /   O peration     | Website:  https://openfoam.org
    \\  /    A nd           | Version:  8
     \\/     M anipulation  |
\*---------------------------------------------------------------------------*/
FoamFile
{
    version     2.0;
    format      ascii;
    class       volScalarField;
    location    "751";
    object      p;
}
// * * * * * * * * * * * * * * * * * * * * * * * * * * * * * * * * * * * * * //

dimensions      [0 2 -2 0 0 0 0];

internalField   nonuniform List<scalar> 
25600
(
763.3507664
757.1946382
753.0558821
750.9295865
749.3735299
747.8672213
746.4255214
745.0870241
743.8363674
742.64018
741.4788658
740.3398857
739.2189335
738.1119247
737.0096739
735.9119776
734.8191453
733.7291704
732.640007
731.5505019
730.4613534
729.3724445
728.2816343
727.1896028
726.0983307
725.0087621
723.9205981
722.8335005
721.7474395
720.662663
719.5791617
718.4959788
717.4119283
716.3266206
715.240243
714.1534293
713.0664437
711.9787284
710.8902653
709.8017669
708.7137552
707.626226
706.5389618
705.4517896
704.3645924
703.2772187
702.18953
701.1013261
700.0123308
698.9223712
697.8312095
696.7383502
695.6430461
694.5443923
693.4414847
692.3334449
691.2193355
690.0981088
688.9686511
687.8297402
686.6798236
685.516888
684.3384985
683.1418284
681.9235975
680.6799699
679.4064565
678.0978184
676.7479449
675.3497359
673.8949529
672.3740579
670.7760403
669.0874241
667.2909812
665.3672277
663.2940159
661.0450538
658.5887888
655.8874887
652.8960703
649.5605579
645.8162031
641.5850255
636.7696592
631.2400647
624.8519921
617.4216262
608.7558531
598.5429524
586.4167261
571.7886816
554.0117095
532.1802486
504.9572182
470.2937465
425.0340291
363.6463097
277.4965629
145.4860031
755.6651627
753.0180808
750.6585993
749.193093
747.9386169
746.6740662
745.4389973
744.2674004
743.150352
742.0680169
741.0094437
739.9706973
738.9492548
737.932909
736.9095997
735.8804559
734.8494466
733.8170542
732.7818323
731.7415986
730.6957569
729.6468002
728.5968077
727.5457495
726.4927815
725.4374235
724.3797126
723.320032
722.2586225
721.1958675
720.1318512
719.0656507
717.9964855
716.9244615
715.8492247
714.7718676
713.6937218
712.6139408
711.5324397
710.4498815
709.3665568
708.2823939
707.197319
706.1113589
705.0245421
703.9368259
702.8482782
701.7584956
700.6672822
699.5749675
698.4813706
697.3860329
696.288148
695.1866583
694.0806406
692.9692816
691.8516836
690.726735
689.5934525
688.4509162
687.2977503
686.1319845
684.9512229
683.7527067
682.5332318
681.2890442
680.0157486
678.7082117
677.3604235
675.965363
674.5147217
672.9991619
671.4091813
669.7332382
667.9527457
666.0481721
663.9982021
661.7775539
659.3557813
656.6964149
653.755825
650.4814171
646.8101128
642.667381
637.9654627
632.6068716
626.4553552
619.3443403
611.0318266
601.2667592
589.6878171
575.9363957
559.4327825
539.4221385
514.9356248
484.7124525
446.9419382
400.1879778
343.1770281
285.0039589
751.8621891
751.0646062
749.6678463
748.3639258
747.2010004
746.0543058
744.9120073
743.8015973
742.718119
741.6528992
740.5945199
739.5462538
738.5316204
737.5322221
736.5165056
735.4860783
734.4501187
733.4120333
732.3720232
731.3297167
730.2794608
729.221894
728.1652907
727.1100436
726.0533546
724.9938345
723.9318472
722.8686017
721.8061704
720.7466437
719.6866022
718.6215146
717.5517596
716.4794794
715.4055575
714.3292708
713.2490006
712.1656892
711.0826302
710.0011056
708.9202755
707.8392584
706.7577812
705.6758521
704.5934502
703.5102576
702.4271644
701.342975
700.2568232
699.1701532
698.082527
696.9934661
695.9021032
694.8073566
693.7084616
692.6046378
691.4951443
690.378802
689.2547486
688.1221815
686.9796489
685.8251852
684.6565762
683.4713032
682.2663963
681.0383583
679.7831064
678.4959175
677.1712275
675.8029686
674.3831506
672.902588
671.3509661
669.7161941
667.9837974
666.1366159
664.1545867
662.0140982
659.6871072
657.1400878
654.3334995
651.2204801
647.7453493
643.8435063
639.4383284
634.4385879
628.7288821
622.1672139
614.5712478
605.7155142
595.316771
583.0920825
568.6781464
551.7196815
531.8299054
508.7901182
481.9072027
451.6212391
419.6821631
394.0281783
749.4169373
748.9795644
747.9991456
746.9239361
745.9239248
744.937784
743.9330858
742.9274453
741.9297844
740.9390872
739.9500353
738.9637649
737.9874687
737.0147308
736.0336073
735.0439951
734.0497217
733.0521688
732.0512313
731.0471186
730.037315
729.0203317
727.9991878
726.9742398
725.9450207
724.9107748
723.8721116
722.8273803
721.7783697
720.7392802
719.7066701
718.6656222
717.6158227
716.5621611
715.5068014
714.4510674
713.3892126
712.3172306
711.2424069
710.1691371
709.0965747
708.0234611
706.9494123
705.8744101
704.7984737
703.7214699
702.6434626
701.5639723
700.4829395
699.4014916
698.3208741
697.2397847
696.1547449
695.0647079
693.9701185
692.8703443
691.7628781
690.6472482
689.5256205
688.3978873
687.2616789
686.1144989
684.9542333
683.7786497
682.5850737
681.370353
680.1308402
678.8623565
677.5599443
676.2177185
674.8288226
673.3850844
671.8754592
670.2872403
668.6106956
666.8316333
664.9318115
662.8901126
660.6819253
658.2773111
655.6376067
652.7166457
649.4699288
645.8514107
641.8074261
637.2635027
632.1208174
626.2758943
619.6401438
612.0847413
603.2853284
593.0921144
581.2070073
567.6204628
552.6116389
536.1268582
518.3668652
500.4095295
485.2379764
477.6963228
747.4874474
747.2244277
746.5755332
745.7624573
744.9288927
744.0737135
743.1815845
742.265869
741.3402449
740.4084092
739.4703136
738.5265884
737.5799952
736.6305434
735.6743756
734.7095561
733.7368131
732.7570985
731.7707776
730.7779096
729.7780147
728.770759
727.7574163
726.738813
725.7153114
724.6867348
723.6532892
722.6149129
721.5730754
720.5323822
719.4919165
718.4466083
717.3963636
716.343605
715.2889915
714.2329934
713.1740067
712.1099075
711.0429839
709.9752167
708.9065236
707.8365302
706.7653114
705.6928866
704.6193956
703.5446284
702.4686583
701.3908468
700.3110859
699.2272641
698.1464268
697.0731136
695.9962212
694.9134858
693.8256945
692.7371286
691.6416695
690.5311657
689.4137217
688.2924556
687.164799
686.0278918
684.8797361
683.7183612
682.5413678
681.3459186
680.128746
678.8860237
677.6132772
676.3047141
674.9545641
673.5558686
672.0999767
670.5773142
668.977932
667.2891657
665.4956835
663.5802861
661.524042
659.3075221
656.9081477
654.2617761
651.3230942
648.0472447
644.4198656
640.4269423
635.9711366
630.9678663
625.3500663
619.0308292
611.8670846
603.7895473
594.7650258
584.9157872
574.5266414
563.9389636
553.8614943
545.722471
541.8991975
546.0180592
745.924944
745.7529242
745.2902009
744.6501526
743.9423244
743.1914149
742.395343
741.5636272
740.7089017
739.8375994
738.952302
738.0548967
737.1476333
736.2315315
735.3055747
734.3688555
733.4218671
732.4655916
731.500734
730.5276989
729.5466724
728.5578256
727.5618342
726.5594051
725.5509807
724.5367182
723.5169494
722.4921483
721.4631546
720.4314855
719.397687
718.3606359
717.3197368
716.2754793
715.2283352
714.1784908
713.1256293
712.0690178
711.009295
709.9475951
708.8843522
707.819624
706.7535043
705.6860215
704.6172816
703.5471792
702.4757388
701.4026369
700.3278021
699.2509756
698.1745366
697.0999273
696.0231154
694.942887
693.8595389
692.7743716
691.6847995
690.5867942
689.4826058
688.3735986
687.258288
686.1347367
685.0014399
683.8568408
682.6989849
681.5255147
680.3336877
679.1202979
677.881598
676.6131286
675.3099927
673.9664324
672.5755951
671.1296117
669.6196818
668.0356187
666.3655502
664.5960069
662.7118824
660.6959499
658.5268871
656.1673221
653.5850461
650.7535955
647.6559596
644.2709755
640.5476057
636.4392262
631.9120989
626.9380875
621.4910828
615.5878216
609.3162079
602.86787
596.5959293
591.0395197
587.0325378
585.8689908
589.431053
600.279757
744.6192343
744.4920495
744.1395946
743.6251886
743.0256575
742.3682834
741.6578749
740.9029947
740.1149057
739.3012497
738.4662619
737.6129231
736.7437568
735.8604432
734.9637007
734.0538141
733.1314341
732.1975453
731.2530199
730.2984822
729.3344197
728.3613044
727.3797744
726.3905292
725.3941464
724.3910755
723.381807
722.3669233
721.3471249
720.3233083
719.2960685
718.2651258
717.2300762
716.1911361
715.1487641
714.1032183
713.0545018
712.0024714
710.9474486
709.8901089
708.8309286
707.7700483
706.7075528
705.6435382
704.5781158
703.5113094
702.4431528
701.3736035
700.3027018
699.230572
698.1577188
697.0846523
696.0104678
694.934327
693.8558707
692.7749529
691.6907802
690.6016664
689.5075122
688.4087615
687.304869
686.1946711
685.0769654
683.9504729
682.8136559
681.6646714
680.5013708
679.3212573
678.1214325
676.8985163
675.6486468
674.3673805
673.0495587
671.6892707
670.2798842
668.8138811
667.2825931
665.6761181
663.9832454
662.1910476
660.2845711
658.2445653
656.0514441
653.6893118
651.1450699
648.4077218
645.4616986
642.2942837
638.9050005
635.309861
631.5463731
627.6955964
623.9106206
620.4448855
617.6929979
616.221469
616.8184857
620.5715551
628.9091058
643.5556875
743.5048451
743.4036883
743.1218935
742.6972944
742.1828608
741.6020632
740.9628017
740.2735981
739.5444693
738.7831148
737.9945557
737.1825222
736.3499721
735.4990846
734.6313677
733.7478721
732.8496455
731.9378215
731.013439
730.0773598
729.1303278
728.1730439
727.2062377
726.2306473
725.2469447
724.2557239
723.2575649
722.2530786
721.24291
720.2277266
719.2080233
718.1839152
717.1554044
716.122725
715.0862387
714.0462119
713.0027873
711.9560686
710.906327
709.8540095
708.7995073
707.7430444
706.6847828
705.624879
704.5634785
703.5006844
702.4365877
701.3712621
700.3048078
699.2373689
698.1692071
697.1005336
696.03103
694.9601707
693.8875697
692.8129939
691.7360546
690.6559713
689.5723885
688.485403
687.394772
686.2997859
685.1995853
684.0932573
682.9797439
681.8577796
680.725878
679.5823144
678.4250965
677.2519249
676.060173
674.8468572
673.6085755
672.3414768
671.0412647
669.7031368
668.3216858
666.8908729
665.4040434
663.853857
662.2323279
660.5304624
658.7397407
656.8548723
654.8746751
652.8025037
650.6449653
648.4153384
646.1414136
643.87256
641.6875811
639.7100291
638.1291208
637.2217432
637.3772571
639.1199653
643.133508
650.2848864
661.6155398
678.2683787
742.5430989
742.4587084
742.2240101
741.8636386
741.4151031
740.8970464
740.317701
739.6851909
739.0083108
738.2942895
737.5484238
736.774772
735.9765614
735.1564044
734.316345
733.4579907
732.5827525
731.6919591
730.7868225
729.8684052
728.9376493
727.9954248
727.0425685
726.0798888
725.1081407
724.1280185
723.1401814
722.1452789
721.1439492
720.1367968
719.1243208
718.1068426
717.0845857
716.0578227
715.0268814
713.992062
712.9536086
711.9117474
710.8667637
709.8190182
708.7688604
707.7165614
706.6623369
705.6063817
704.5488763
703.4899782
702.4298301
701.3685669
700.3063292
699.2432846
698.179629
697.1154614
696.0506677
694.9850307
693.9183526
692.850486
691.7812304
690.7102586
689.637372
688.5625788
687.4857882
686.4066725
685.324787
684.239645
683.1506873
682.0572387
680.958497
679.8535356
678.7412998
677.6205955
676.4900806
675.3482662
674.1935127
673.0240321
671.8379126
670.6331394
669.4076119
668.1592
666.8858565
665.5857596
664.2575726
662.9007977
661.5168612
660.1108746
658.6929461
657.2791936
655.8928286
654.567403
653.3527093
652.3214942
651.5772313
651.2652878
651.587278
652.8161773
655.3111743
659.5298946
666.0357054
675.4952026
688.6506612
706.250592
741.7084172
741.6356278
741.4336189
741.119986
740.7226146
740.2557418
739.7265066
739.1421856
738.5105086
737.8382024
737.1305086
736.3915913
735.6249026
734.8333242
734.0192187
733.1845358
732.3309619
731.4600196
730.5730875
729.6713971
728.7560539
727.8280707
726.8883955
725.9379217
724.9774848
724.0078598
723.0297739
722.0439189
721.0509511
720.0514776
719.0460279
718.0350271
717.0188235
715.9977558
714.972178
713.9424313
712.908825
711.871652
710.8312223
709.7878747
708.7419438
707.6937239
706.6434692
705.5914118
704.5377698
703.4827463
702.4265319
701.3693114
700.3112698
699.2525945
698.1934814
697.1340616
696.0743548
695.0143325
693.9539657
692.8932412
691.8321341
690.7705967
689.7086377
688.6463615
687.5838712
686.5211812
685.458254
684.3950345
683.3314753
682.2675002
681.202992
680.1378299
679.0719107
678.0051503
676.9374856
675.8689243
674.7995831
673.729723
672.6598085
671.590587
670.5231876
669.4592624
668.4011938
667.3523765
666.3176381
665.3038321
664.3207921
663.3826888
662.5094427
661.7281921
661.0751535
660.5986312
660.3635661
660.4571351
660.9952527
662.1305884
664.0619511
667.0435854
671.3928449
677.494175
685.7965817
696.8005095
711.0265546
728.9578811
740.9831927
740.918915
740.7403895
740.4614269
740.1039887
739.6785479
739.1906711
738.6467585
738.0537977
737.4179242
736.7440885
736.036394
735.2983583
734.5329924
733.7428458
732.9300908
732.0966232
731.2441376
730.3741611
729.4880682
728.5871006
727.6723932
726.744996
725.8058868
724.8559752
723.8961061
722.9270667
721.9495947
720.9643788
719.9720536
718.9731877
717.9682755
716.9577504
715.9420164
714.9214677
713.8964829
712.867417
711.8346088
710.7983967
709.7591249
708.7171316
707.6727305
706.6262083
705.577832
704.5278559
703.4765227
702.4240663
701.3707149
700.316696
699.2622347
698.2075659
697.1528763
696.0982886
695.0439203
693.9898926
692.9363392
691.8834108
690.8312778
689.7801636
688.7303555
687.682184
686.6359742
685.5920786
684.5508607
683.5127814
682.4783897
681.4482352
680.4229779
679.4034624
678.3907184
677.3859075
676.3905001
675.4063034
674.435554
673.4810191
672.546115
671.6350461
670.7530153
669.9065161
669.1037066
668.3549141
667.6732995
667.0757659
666.5841494
666.2265969
666.0391344
666.0676071
666.3703216
667.0216123
668.1161755
669.7739533
672.1455589
675.4179329
679.8192137
685.6214391
693.1393554
702.7231262
714.7421452
729.5562227
747.4709765
740.3546998
740.2967648
740.1357636
739.8830637
739.5566427
739.1643517
738.7104235
738.2003718
737.6404014
737.0360229
736.391824
735.7117579
734.9993145
734.2575512
733.4891214
732.6963372
731.8812412
731.045662
730.191249
729.3194937
728.4317501
727.5292559
726.6131513
725.6844915
724.744255
723.793349
722.8326161
721.8628399
720.8847477
719.8990098
718.9062357
717.9069739
716.9017195
715.8909309
714.8750435
713.854472
712.8296095
711.8008315
710.7685042
709.7329882
708.6946347
707.6537778
706.6107321
705.5657961
704.5192575
703.4713952
702.422482
701.3727881
700.322582
699.272147
698.2217641
697.1716701
696.1220904
695.0732687
694.0254609
692.9789469
691.934043
690.8911107
689.8505752
688.8129356
687.7787649
686.7487005
685.723459
684.7038545
683.6908275
682.6854678
681.6890073
680.7028531
679.7286953
678.7686981
677.8251618
676.9010429
675.9997552
675.1253554
674.2827246
673.4777813
672.7176206
672.0107221
671.3672847
670.7996844
670.3230289
669.9558291
669.7208585
669.6462237
669.7666284
670.1248399
670.773448
671.7770578
673.2150021
675.1844737
677.8038688
681.2161256
685.5916694
691.1301901
698.0601751
706.6348953
717.1233308
729.7943678
744.8926314
762.6052198
739.813371
739.7602394
739.6125322
739.3799494
739.0777598
738.7120171
738.2858649
737.8039629
737.2717782
736.6942572
736.0756268
735.419643
734.7297064
734.0088592
733.2597951
732.4849041
731.6863242
730.8659826
730.0256246
729.1668361
728.2910628
727.3996281
726.4937497
725.5745518
724.6430746
723.7002814
722.7470647
721.7842522
720.8126106
719.8328471
718.8456107
717.8514943
716.8510413
715.8447553
714.8331101
713.8165544
712.7955141
711.7703956
710.7415908
709.7094804
708.6744334
707.6368048
706.5969342
705.5551489
704.5117671
703.4671011
702.4214603
701.3751542
700.3284952
699.2818307
698.2354815
697.1897349
696.1449203
695.1013906
694.0595222
693.0197312
691.9824874
690.9483269
689.9178665
688.8918199
687.8710039
686.8563533
685.8489303
684.8499629
683.8608542
682.8832477
681.9190031
680.9703274
680.0396958
679.1301602
678.2449881
677.3884137
676.5656161
675.7824957
675.0458688
674.3637704
673.7458437
673.2035544
672.7504113
672.4024418
672.1788028
672.1024549
672.2009462
672.5073557
673.0614015
673.9107155
675.1123127
676.7342991
678.857824
681.5791762
685.011829
689.2881728
694.5605492
701.0009973
708.7989264
718.155816
729.2759999
742.3526765
757.5486105
774.9718434
739.3519618
739.3025073
739.1649865
738.9479361
738.6647338
738.3201736
737.9165506
737.4577913
736.9487239
736.3938
735.7969048
735.1615778
734.4910963
733.7884492
733.0563293
732.2971628
731.5131461
730.7062751
729.8783677
729.0310837
728.1659418
727.2843355
726.3875477
725.476762
724.5530726
723.6174918
722.6709571
721.7143365
720.7484338
719.7739915
718.7916946
717.8021738
716.8060115
715.8037489
714.7958937
713.7829249
712.7652969
711.7434429
710.7177783
709.6887044
708.6566094
707.6218685
706.5848444
705.5458902
704.505352
703.4635722
702.4208939
701.3776601
700.334246
699.2910392
698.2483871
697.206654
696.1662566
695.1276416
694.0912936
693.0577528
692.0276294
691.0016184
689.9805158
688.9652375
687.9568342
686.9565146
685.9656648
684.9858873
684.019027
683.0672276
682.1329565
681.219086
680.3289229
679.4663271
678.6357298
677.8422673
677.0920673
676.3925604
675.7532804
675.1842995
674.6971739
674.3057736
674.026502
673.8785372
673.8844036
674.0706732
674.4686859
675.1153533
676.054087
677.3358452
679.0202836
681.1769994
683.8868289
687.2430957
691.3526314
696.3363183
702.3288262
709.4771
717.93706
727.8679388
739.4237296
752.7413956
767.925857
785.0324429
738.9649295
738.9182972
738.7885991
738.5835452
738.3151655
737.9873659
737.6018045
737.1618143
736.6716884
736.1354548
735.5566918
734.9387292
734.2847117
733.5975558
732.879929
732.1342667
731.3627967
730.5675602
729.7504275
728.9131143
728.0571963
727.1841233
726.2952314
725.391754
724.4748312
723.5455177
722.6047898
721.6535513
720.6926392
719.7228281
718.7448342
717.7593204
716.766901
715.7681486
714.7635994
713.7537589
712.7391063
711.7200974
710.697169
709.6707415
708.6412217
707.6090035
706.5744707
705.5379989
704.4999591
703.4607209
702.4206579
701.3801451
700.3396165
699.2994896
698.2601386
697.2220053
696.1855802
695.1513915
694.1200194
693.0921145
692.0684117
691.0497481
690.0370811
689.0315104
688.0343
687.0469058
686.0710051
685.1085359
684.1617393
683.2332102
682.3259558
681.4434537
680.5897433
679.7694665
678.9880283
678.2515378
677.5672821
676.9433816
676.3903063
675.9215513
675.5510899
675.2942053
675.1693838
675.198444
675.4067231
675.8236732
676.4835624
677.4261693
678.6975242
680.350721
682.446767
685.0554151
688.2559206
692.137621
696.8001819
702.3532951
708.9155671
716.612281
725.5716819
735.9194489
747.771109
761.2223382
776.3374137
793.1365716
738.6480217
738.603539
738.4798018
738.2839276
738.0269808
737.7122402
737.3408966
736.9158198
736.440871
735.9197295
735.3557125
734.7519627
734.1114975
733.4371564
732.7315696
731.9971648
731.2361841
730.4506961
729.6426076
728.8136754
727.9655186
727.0996307
726.2173903
725.3200714
724.4088517
723.4848213
722.5489889
721.6022889
720.645587
719.6796848
718.7053255
717.7231982
716.7339437
715.7381595
714.7364061
713.7292109
712.7170737
711.7004698
710.6798541
709.6556642
708.628323
707.5982418
706.5658222
705.5314595
704.4955459
703.4584748
702.420644
701.3824695
700.3444223
699.3069391
698.2704372
697.2354196
696.2024381
695.172091
694.145041
693.1220331
692.1039097
691.0916305
690.0862929
689.0891574
688.1016731
687.1255117
686.1626005
685.2151699
684.2857984
683.3774769
682.4936672
681.6383877
680.8162841
680.0327406
679.2939355
678.6069925
677.9799816
677.4222985
676.9446639
676.560919
676.289842
676.1485848
676.156407
676.3368629
676.7176162
677.3304381
678.2118068
679.4035694
680.9535326
682.9160594
685.3526509
688.3324338
691.9324869
696.2379138
701.3415264
707.3429637
714.3470509
722.4611796
731.7914988
742.4377449
754.4866431
768.0039844
783.0257378
799.5488897
738.3980003
738.355119
738.2358236
738.0468112
737.7984603
737.4936122
737.1331231
736.7195147
736.256316
735.7469314
735.194468
734.6019121
733.9721703
733.3080101
732.6120217
731.886618
731.1340442
730.3563847
729.5555704
728.733387
727.8914858
727.031393
726.15452
725.262172
724.3555567
723.4357921
722.5039135
721.5608797
720.6075797
719.6448374
718.6734175
717.6940304
716.7073374
715.7139562
714.714466
713.7094122
712.6993111
711.6846539
710.6659103
709.6435319
708.6179557
707.5896072
706.5589029
705.5262544
704.4920713
703.4567668
702.4207581
701.3845011
700.3484895
699.3131737
698.2790171
697.246569
696.2164308
695.1892589
694.1657832
693.1468264
692.1333188
691.1263218
690.1270476
689.1368908
688.1574525
687.1905837
686.2384157
685.3034208
684.3884517
683.4968248
682.632372
681.799551
681.0035156
680.2502424
679.5466327
678.9005731
678.3211229
677.8182702
677.4037891
677.09082
676.8991135
676.8518905
676.9684969
677.2727306
677.7938566
678.5655538
679.6260034
681.0184888
682.7919427
685.0014026
687.7083632
690.9809791
694.8940637
699.5287958
704.9720101
711.3149352
718.6512361
727.0742221
736.6731017
747.5282244
759.7053472
773.2491091
788.1760918
804.4680681
738.2124535
738.1707098
738.0545712
737.870446
737.628243
737.3305083
736.9778687
736.5725993
736.1179878
735.6172366
735.0732948
734.4890283
733.8672559
733.2106858
732.5218728
731.8032135
731.056951
730.2851778
729.4898398
728.6727425
727.8355591
726.9798393
726.1070181
725.2184238
724.3152861
723.398744
722.4698525
721.5295892
720.5788604
719.6185072
718.6493105
717.6719964
716.6872418
715.6956792
714.697902
713.694469
712.6859091
711.6727253
710.6553986
709.6343917
708.6101525
707.5831173
706.5537142
705.5223673
704.4894997
703.45554
702.4209199
701.3861276
700.3516725
699.318015
698.2856561
697.2551807
696.2272272
695.2024967
694.1817707
693.1659311
692.1559755
691.1530437
690.1584354
689.1736491
688.2004015
687.2406831
686.2967777
685.3713475
684.4674452
683.5886465
682.7390429
681.9234503
681.1473581
680.4172581
679.7404994
679.1257854
678.5827782
678.122712
677.7572949
677.5003604
677.3680485
677.3907953
677.5902195
677.9891769
678.6171037
679.5091041
680.7048192
682.2485313
684.1898047
686.583968
689.4922881
692.9819309
697.1257234
702.0016135
707.6917032
714.2807455
721.8540095
730.4944287
740.2789746
751.2742651
763.5315057
777.0809817
791.926469
808.0400797
738.0896679
738.0486544
737.9345422
737.753559
737.5153195
737.2221874
736.8746463
736.4748139
736.0258213
735.5307382
734.9924084
734.4136167
733.7971211
733.1455879
732.461546
731.7473787
731.0053256
730.2374829
729.4458051
728.6321095
727.7980833
726.9452914
726.0751838
725.1891039
724.2882962
723.3739135
722.4470238
721.5086173
720.5596122
719.6008609
718.633155
717.6572315
716.6737774
715.6834351
714.6868074
713.6844619
712.6769361
711.664741
710.6483652
709.6282789
708.6049373
707.5787843
706.5502558
705.5197845
704.4878024
703.4547486
702.421065
701.3872618
700.3538588
699.3213228
698.2901812
697.2610425
696.2345707
695.2114968
694.1926369
693.1789135
692.1713693
691.1711974
690.1797565
689.1986166
688.2295706
687.2747063
686.3364064
685.4174669
684.5210655
683.6509644
682.8114067
682.0074727
681.2448231
680.530338
679.8715498
679.2778019
678.7590602
678.3279048
677.9967047
677.7803382
677.6899047
677.7562849
678.010034
678.4733178
679.1734958
680.1462408
681.4325176
683.0773388
685.1305536
687.6475619
690.6893794
694.3223987
698.6179929
703.6518292
709.5027487
716.2511239
723.9766325
732.7553955
742.6564611
753.7376793
766.0410996
779.5881224
794.3747556
810.3674298
738.0285439
737.9878874
737.8747659
737.6953203
737.4590234
737.1681518
736.8231205
736.4259704
735.9797559
735.4874806
734.9519361
734.375866
733.7619978
733.1129758
732.4313155
731.7193927
730.9794446
730.2135689
729.4237237
728.6117322
727.7792882
726.9279639
726.0592167
725.1743977
724.2747584
723.3614586
722.435573
721.4980979
720.5499575
719.5920098
718.6250521
717.6498265
716.6670251
715.6772952
714.6812444
713.6794449
712.6724381
711.6607393
710.6448409
709.6252168
708.6023259
707.576616
706.548527
705.5184957
704.4869589
703.4543611
702.421149
701.3878441
700.3549716
699.3230012
698.2924738
697.2640101
696.2382867
695.2160498
694.198133
693.1854793
692.1791537
691.180377
690.1905368
689.2112401
688.2443171
687.2919065
686.356438
685.4407788
684.548163
683.6824555
682.8479591
682.0499077
681.2940034
680.5873687
679.9374977
679.3541437
678.8470275
678.4296424
678.1143888
677.9193888
677.8589267
677.9434993
678.2219176
678.7174398
679.4541332
680.4673574
681.7989533
683.4943753
685.6035552
688.181876
691.2901968
694.9944906
699.365365
704.4773103
710.4075077
717.2341235
725.0340448
733.8800214
743.8372122
754.9592001
767.2836173
780.8276211
795.5835559
811.5152254
738.0285439
737.9878874
737.8747659
737.6953203
737.4590234
737.1681518
736.8231206
736.4259704
735.9797559
735.4874806
734.9519361
734.375866
733.7619978
733.1129758
732.4313155
731.7193927
730.9794447
730.2135689
729.4237237
728.6117322
727.7792882
726.9279639
726.0592167
725.1743977
724.2747584
723.3614586
722.435573
721.4980979
720.5499575
719.5920098
718.6250521
717.6498265
716.6670251
715.6772952
714.6812444
713.6794449
712.6724381
711.6607393
710.6448409
709.6252168
708.6023259
707.576616
706.548527
705.5184957
704.4869589
703.4543611
702.421149
701.3878441
700.3549716
699.3230012
698.2924738
697.2640101
696.2382867
695.2160498
694.198133
693.1854793
692.1791537
691.180377
690.1905368
689.2112401
688.2443171
687.2919065
686.356438
685.4407788
684.548163
683.6824554
682.8479591
682.0499077
681.2940034
680.5873687
679.9374977
679.3541437
678.8470275
678.4296424
678.1143888
677.9193888
677.8589267
677.9434993
678.2219176
678.7174398
679.4541332
680.4673574
681.7989533
683.4943754
685.6035552
688.181876
691.2901968
694.9944906
699.365365
704.4773103
710.4075077
717.2341235
725.0340449
733.8800214
743.8372123
754.9592001
767.2836173
780.8276212
795.583556
811.5152255
738.0896679
738.0486544
737.9345422
737.753559
737.5153195
737.2221874
736.8746463
736.4748139
736.0258213
735.5307382
734.9924084
734.4136167
733.7971211
733.1455879
732.461546
731.7473788
731.0053257
730.237483
729.4458051
728.6321095
727.7980834
726.9452914
726.0751838
725.189104
724.2882962
723.3739135
722.4470238
721.5086173
720.5596122
719.6008609
718.633155
717.6572315
716.6737774
715.6834351
714.6868074
713.6844619
712.6769361
711.664741
710.6483652
709.6282789
708.6049373
707.5787843
706.5502558
705.5197845
704.4878024
703.4547486
702.421065
701.3872618
700.3538588
699.3213228
698.2901812
697.2610425
696.2345707
695.2114968
694.1926369
693.1789135
692.1713693
691.1711974
690.1797565
689.1986166
688.2295705
687.2747063
686.3364064
685.4174669
684.5210655
683.6509644
682.8114067
682.0074727
681.2448231
680.530338
679.8715497
679.2778019
678.7590602
678.3279048
677.9967047
677.7803382
677.6899047
677.7562849
678.010034
678.4733178
679.1734959
680.1462408
681.4325177
683.0773389
685.1305536
687.6475619
690.6893794
694.3223988
698.6179929
703.6518293
709.5027488
716.251124
723.9766326
732.7553957
742.6564612
753.7376795
766.0410997
779.5881225
794.3747558
810.36743
738.2124535
738.1707098
738.0545712
737.870446
737.628243
737.3305083
736.9778687
736.5725993
736.1179878
735.6172366
735.0732948
734.4890283
733.8672559
733.2106858
732.5218728
731.8032135
731.056951
730.2851778
729.4898399
728.6727425
727.8355591
726.9798394
726.1070181
725.2184238
724.3152862
723.3987441
722.4698525
721.5295892
720.5788604
719.6185072
718.6493105
717.6719964
716.6872418
715.6956792
714.697902
713.694469
712.6859091
711.6727253
710.6553986
709.6343917
708.6101525
707.5831172
706.5537142
705.5223673
704.4894997
703.45554
702.4209199
701.3861276
700.3516725
699.318015
698.2856561
697.2551806
696.2272272
695.2024967
694.1817707
693.1659311
692.1559755
691.1530436
690.1584354
689.1736491
688.2004014
687.240683
686.2967777
685.3713475
684.4674452
683.5886465
682.7390428
681.9234502
681.1473581
680.417258
679.7404994
679.1257853
678.5827782
678.122712
677.757295
677.5003604
677.3680485
677.3907954
677.5902195
677.9891769
678.6171038
679.5091042
680.7048193
682.2485314
684.1898048
686.5839681
689.4922882
692.9819311
697.1257235
702.0016137
707.6917034
714.2807456
721.8540097
730.4944289
740.2789748
751.2742653
763.5315059
777.0809819
791.9264693
808.0400799
738.3980004
738.355119
738.2358236
738.0468112
737.7984603
737.4936122
737.1331231
736.7195148
736.256316
735.7469314
735.194468
734.6019122
733.9721704
733.3080102
732.6120218
731.8866181
731.1340442
730.3563848
729.5555704
728.7333871
727.8914859
727.0313931
726.15452
725.262172
724.3555568
723.4357922
722.5039135
721.5608798
720.6075797
719.6448374
718.6734175
717.6940304
716.7073374
715.7139562
714.7144659
713.7094122
712.6993111
711.6846539
710.6659102
709.6435319
708.6179557
707.5896072
706.5589029
705.5262544
704.4920713
703.4567668
702.4207581
701.3845011
700.3484895
699.3131737
698.2790171
697.246569
696.2164308
695.1892589
694.1657832
693.1468264
692.1333188
691.1263218
690.1270476
689.1368908
688.1574525
687.1905837
686.2384157
685.3034208
684.3884516
683.4968248
682.6323719
681.799551
681.0035156
680.2502423
679.5466327
678.9005731
678.3211228
677.8182702
677.4037891
677.09082
676.8991136
676.8518906
676.968497
677.2727307
677.7938566
678.5655539
679.6260035
681.0184889
682.7919428
685.0014028
687.7083634
690.9809792
694.8940639
699.528796
704.9720103
711.3149354
718.6512363
727.0742223
736.6731019
747.5282247
759.7053475
773.2491094
788.1760921
804.4680684
738.6480218
738.6035391
738.4798018
738.2839276
738.0269808
737.7122402
737.3408967
736.9158198
736.4408711
735.9197296
735.3557126
734.7519627
734.1114975
733.4371565
732.7315697
731.9971649
731.2361841
730.4506962
729.6426077
728.8136754
727.9655186
727.0996307
726.2173904
725.3200715
724.4088518
723.4848213
722.5489889
721.602289
720.645587
719.6796848
718.7053255
717.7231982
716.7339437
715.7381595
714.736406
713.7292109
712.7170737
711.7004698
710.6798541
709.6556642
708.628323
707.5982418
706.5658222
705.5314594
704.4955459
703.4584748
702.4206439
701.3824695
700.3444223
699.3069391
698.2704372
697.2354196
696.2024381
695.172091
694.145041
693.1220331
692.1039096
691.0916305
690.0862928
689.0891573
688.1016731
687.1255117
686.1626005
685.2151699