/*--------------------------------*- C++ -*----------------------------------*\
  =========                 |
  \\      /  F ield         | OpenFOAM: The Open Source CFD Toolbox
   \\    /   O peration     | Website:  https://openfoam.org
    \\  /    A nd           | Version:  8
     \\/     M anipulation  |
\*---------------------------------------------------------------------------*/
FoamFile
{
    version     2.0;
    format      ascii;
    class       surfaceScalarField;
    location    "751";
    object      phi;
}
// * * * * * * * * * * * * * * * * * * * * * * * * * * * * * * * * * * * * * //

dimensions      [0 3 -1 0 0 0 0];

internalField   nonuniform List<scalar> 
50556
(
6.247348768e-06
2.651231501e-09
6.24320213e-06
4.146638525e-09
6.238326063e-06
4.876066892e-09
6.232858489e-06
5.467573712e-09
6.226860784e-06
5.997704847e-09
6.220414821e-06
6.445962974e-09
6.213591314e-06
6.823507334e-09
6.206434008e-06
7.157305873e-09
6.19898189e-06
7.452118202e-09
6.191265572e-06
7.716317962e-09
6.183314819e-06
7.950752842e-09
6.175152316e-06
8.162503554e-09
6.166800713e-06
8.351602576e-09
6.158283893e-06
8.516820428e-09
6.14961715e-06
8.66674226e-09
6.140817405e-06
8.799745584e-09
6.131901184e-06
8.916220913e-09
6.122883477e-06
9.017707261e-09
6.113778012e-06
9.10546436e-09
6.104596624e-06
9.18138843e-09
6.095351298e-06
9.245325275e-09
6.086054098e-06
9.297199949e-09
6.076713878e-06
9.340220325e-09
6.067338873e-06
9.37500541e-09
6.057937407e-06
9.401465735e-09
6.048517665e-06
9.419741666e-09
6.039087101e-06
9.430564321e-09
6.029652535e-06
9.434566132e-09
6.020220143e-06
9.432391531e-09
6.010795842e-06
9.42430119e-09
6.001385676e-06
9.410165481e-09
5.99199521e-06
9.390466368e-09
5.982629078e-06
9.366132194e-09
5.973291319e-06
9.337759128e-09
5.963985317e-06
9.306002116e-09
5.954714437e-06
9.27087988e-09
5.945482174e-06
9.232262953e-09
5.936291175e-06
9.190998221e-09
5.927143532e-06
9.14764304e-09
5.918041341e-06
9.102191763e-09
5.908986712e-06
9.054628403e-09
5.899981604e-06
9.005108189e-09
5.891027764e-06
8.953840305e-09
5.882126757e-06
8.901006464e-09
5.873280015e-06
8.846742265e-09
5.86448879e-06
8.791225066e-09
5.855754251e-06
8.734538967e-09
5.847077473e-06
8.676777462e-09
5.838459327e-06
8.618145839e-09
5.829900666e-06
8.55866098e-09
5.821402416e-06
8.498250421e-09
5.812965556e-06
8.436859738e-09
5.804591084e-06
8.374472208e-09
5.796279921e-06
8.311162421e-09
5.788032931e-06
8.246990684e-09
5.779850969e-06
8.181962045e-09
5.771734907e-06
8.116061511e-09
5.763685604e-06
8.04930322e-09
5.755703965e-06
7.981638631e-09
5.747791108e-06
7.912857573e-09
5.739948416e-06
7.842691621e-09
5.73217752e-06
7.770895856e-09
5.724480307e-06
7.697213387e-09
5.716858976e-06
7.621330128e-09
5.709316111e-06
7.542865902e-09
5.701854737e-06
7.461373285e-09
5.694478406e-06
7.376330931e-09
5.687191283e-06
7.287123639e-09
5.679998232e-06
7.193050941e-09
5.672904934e-06
7.093297449e-09
5.665917995e-06
6.98693918e-09
5.659045084e-06
6.872910945e-09
5.652295751e-06
6.7493331e-09
5.645682183e-06
6.613567517e-09
5.639217892e-06
6.464291179e-09
5.632918633e-06
6.29925922e-09
5.626803271e-06
6.115361549e-09
5.620894389e-06
5.908881762e-09
5.615218999e-06
5.675390243e-09
5.609809458e-06
5.409541202e-09
5.604704592e-06
5.104865537e-09
5.599951032e-06
4.753560417e-09
5.595605032e-06
4.345999809e-09
5.591736165e-06
3.868866651e-09
5.588436413e-06
3.299751715e-09
5.585807373e-06
2.629040567e-09
5.583985225e-06
1.822147107e-09
5.583112616e-06
8.726094488e-10
5.583438081e-06
-3.254652197e-10
5.585234427e-06
-1.796346099e-09
5.588949676e-06
-3.715248524e-09
5.595032057e-06
-6.082381417e-09
5.60415976e-06
-9.1277031e-09
5.617313149e-06
-1.315338905e-08
5.635985318e-06
-1.86721688e-08
5.662481699e-06
-2.649638113e-08
5.700792755e-06
-3.831105629e-08
5.757156039e-06
-5.636328398e-08
5.848591296e-06
-9.143525714e-08
-1.393758237e-07
5.98796712e-06
6.25134126e-06
1.309971026e-09
6.252386227e-06
3.101671564e-09
6.253116411e-06
4.14588337e-09
6.253619151e-06
4.964833984e-09
6.253982066e-06
5.634789775e-09
6.254236144e-06
6.191884933e-09
6.254395184e-06
6.664467454e-09
6.254470618e-06
7.081871057e-09
6.25447214e-06
7.450596727e-09
6.25440281e-06
7.785648114e-09
6.254264158e-06
8.089404455e-09
6.25405811e-06
8.36855145e-09
6.253792058e-06
8.617654575e-09
6.253470141e-06
8.838737839e-09
6.253089336e-06
9.047546333e-09
6.252647755e-06
9.241327036e-09
6.252145085e-06
9.418891315e-09
6.251581478e-06
9.581313584e-09
6.250957707e-06
9.729235346e-09
6.250273183e-06
9.865912209e-09
6.249526109e-06
9.99239919e-09
6.248716553e-06
1.01067563e-08
6.247845547e-06
1.021122617e-08
6.24691371e-06
1.030684206e-08
6.245921416e-06
1.039376045e-08
6.24486913e-06
1.047202724e-08
6.24375734e-06
1.054235392e-08
6.242586686e-06
1.060522066e-08
6.241357673e-06
1.06614049e-08
6.240071166e-06
1.071080799e-08
6.238728761e-06
1.075257059e-08
6.237331833e-06
1.078739345e-08
6.235881357e-06
1.081660816e-08
6.234378745e-06
1.084037186e-08
6.232824181e-06
1.086056541e-08
6.231218201e-06
1.087686016e-08
6.229562727e-06
1.088773691e-08
6.227858618e-06
1.089510678e-08
6.226106659e-06
1.089960191e-08
6.224307946e-06
1.090090536e-08
6.222463655e-06
1.089891895e-08
6.220574953e-06
1.089381059e-08
6.218642983e-06
1.088580996e-08
6.216668908e-06
1.087508155e-08
6.214653902e-06
1.086174818e-08
6.21259906e-06
1.084606666e-08
6.210505794e-06
1.082780483e-08
6.20837525e-06
1.080732187e-08
6.206208341e-06
1.078505486e-08
6.204006354e-06
1.076064784e-08
6.201770566e-06
1.073403809e-08
6.199502501e-06
1.070492459e-08
6.197203821e-06
1.067315274e-08
6.194876083e-06
1.063890032e-08
6.192520813e-06
1.060226063e-08
6.190139576e-06
1.056319902e-08
6.187734037e-06
1.052159979e-08
6.185305726e-06
1.047761464e-08
6.182856153e-06
1.043121189e-08
6.180387109e-06
1.038190115e-08
6.177900679e-06
1.03291219e-08
6.175399179e-06
1.027239552e-08
6.172885172e-06
1.021122017e-08
6.170361508e-06
1.014499372e-08
6.167831373e-06
1.007300132e-08
6.165298341e-06
9.994405422e-09
6.162766444e-06
9.908227925e-09
6.160240259e-06
9.813308574e-09
6.157724988e-06
9.708321854e-09
6.155226677e-06
9.591608109e-09
6.152752015e-06
9.461601037e-09
6.150307741e-06
9.317184495e-09
6.147902194e-06
9.154880774e-09
6.145548299e-06
8.967462004e-09
6.143258591e-06
8.753999194e-09
6.141047776e-06
8.510073933e-09
6.13893312e-06
8.230017178e-09
6.13693498e-06
7.907021909e-09
6.135077525e-06
7.532845762e-09
6.133389557e-06
7.097509123e-09
6.131905707e-06
6.588714752e-09
6.130667364e-06
5.991903507e-09
6.129723393e-06
5.289971291e-09
6.129131774e-06
4.460484579e-09
6.128956409e-06
3.475116942e-09
6.129286931e-06
2.298518862e-09
6.130229985e-06
8.79092351e-10
6.13194796e-06
-8.453654604e-10
6.134590688e-06
-2.968193083e-09
6.138390143e-06
-5.595801418e-09
6.143562093e-06
-8.887198596e-09
6.1504924e-06
-1.301268848e-08
6.159647398e-06
-1.828270116e-08
6.171639182e-06
-2.514517361e-08
6.187299046e-06
-3.433203221e-08
6.207827775e-06
-4.702511089e-08
6.234423072e-06
-6.490635343e-08
6.268336338e-06
-9.027654928e-08
6.305063413e-06
-1.281623328e-07
-1.779896849e-07
6.343677274e-06
6.250458511e-06
8.514596885e-10
6.251221186e-06
2.338997147e-09
6.251976232e-06
3.390836828e-09
6.252724362e-06
4.21670411e-09
6.253441169e-06
4.917982471e-09
6.254113024e-06
5.520030379e-09
6.2547406e-06
6.036891017e-09
6.25533322e-06
6.489251084e-09
6.255895985e-06
6.887831674e-09
6.25643534e-06
7.246293037e-09
6.256957847e-06
7.566897711e-09
6.257475334e-06
7.851064698e-09
6.257978605e-06
8.114383601e-09
6.258454043e-06
8.36329922e-09
6.258908627e-06
8.592962885e-09
6.259347055e-06
8.802898988e-09
6.259770878e-06
8.995068131e-09
6.260180796e-06
9.171395178e-09
6.260576864e-06
9.333167431e-09
6.260958466e-06
9.484310209e-09
6.261326218e-06
9.62464698e-09
6.261681373e-06
9.751602112e-09
6.262024924e-06
9.867675185e-09
6.262357357e-06
9.974408898e-09
6.262678592e-06
1.007252504e-08
6.262988118e-06
1.016250084e-08
6.263285068e-06
1.024540423e-08
6.263568029e-06
1.032225953e-08
6.263836046e-06
1.039338837e-08
6.264091652e-06
1.045520161e-08
6.264336571e-06
1.050765162e-08
6.264569668e-06
1.055429651e-08
6.264789895e-06
1.059638143e-08
6.264996851e-06
1.063341495e-08
6.265190662e-06
1.066675458e-08
6.265371641e-06
1.069588118e-08
6.265538505e-06
1.072087325e-08
6.265689379e-06
1.074423235e-08
6.265823946e-06
1.076503527e-08
6.265942599e-06
1.078225172e-08
6.266045647e-06
1.079587147e-08
6.266133271e-06
1.080618606e-08
6.266205574e-06
1.081350687e-08
6.266262651e-06
1.081800453e-08
6.26630459e-06
1.081980946e-08
6.266331717e-06
1.081893944e-08
6.266343589e-06
1.081593287e-08
6.266340149e-06
1.081076246e-08
6.26632217e-06
1.080303384e-08
6.26628968e-06
1.079313735e-08
6.2662426e-06
1.078111779e-08
6.266181503e-06
1.076602214e-08
6.266107087e-06
1.07475684e-08
6.266019846e-06
1.072614139e-08
6.265920344e-06
1.070176279e-08
6.265809097e-06
1.067444527e-08
6.265686939e-06
1.064375774e-08
6.265554345e-06
1.061020855e-08
6.265411821e-06
1.057373592e-08
6.265260274e-06
1.053344809e-08
6.265100849e-06
1.048854707e-08
6.264934868e-06
1.043837692e-08
6.264763886e-06
1.038220218e-08
6.264589737e-06
1.031914245e-08
6.264414564e-06
1.024817365e-08
6.264240862e-06
1.016810779e-08
6.264071522e-06
1.007756802e-08
6.263909936e-06
9.974894367e-09
6.263759779e-06
9.858478303e-09
6.263626062e-06
9.725325445e-09
6.263514364e-06
9.573298891e-09
6.263431214e-06
9.400335075e-09
6.263384187e-06
9.2019074e-09
6.263382003e-06
8.96964578e-09
6.263434967e-06
8.701034877e-09
6.26355527e-06
8.389771255e-09
6.263757316e-06
8.027971046e-09
6.264058208e-06
7.606129224e-09
6.264478378e-06
7.112675939e-09
6.265041893e-06
6.533994521e-09
6.265777476e-06
5.853131671e-09
6.266719325e-06
5.050054063e-09
6.267907019e-06
4.102277429e-09
6.269387636e-06
2.979867032e-09
6.271216553e-06
1.646200097e-09
6.273465555e-06
4.951706882e-11
6.276220517e-06
-1.875869868e-09
6.279587789e-06
-4.212637812e-09
6.283700371e-06
-7.080775027e-09
6.288735501e-06
-1.06309311e-08
6.294859763e-06
-1.501146099e-08
6.302318607e-06
-2.04715325e-08
6.311336487e-06
-2.730058167e-08
6.322166086e-06
-3.597477196e-08
6.335127522e-06
-4.729346895e-08
6.350101953e-06
-6.199954222e-08
6.366704554e-06
-8.150895375e-08
6.383833036e-06
-1.074050321e-07
6.398408682e-06
-1.427379784e-07
-1.881560898e-07
6.408575087e-06
6.250225786e-06
6.256737588e-10
6.250749043e-06
1.815739657e-09
6.25135007e-06
2.789809957e-09
6.251975833e-06
3.590941303e-09
6.252614214e-06
4.279601678e-09
6.253253004e-06
4.88123982e-09
6.253884104e-06
5.405790935e-09
6.254506629e-06
5.866726458e-09
6.255118947e-06
6.275513246e-09
6.255723722e-06
6.641518494e-09
6.256319581e-06
6.971039147e-09
6.256903634e-06
7.267011458e-09
6.257481689e-06
7.536328221e-09
6.258058798e-06
7.786190663e-09
6.258633828e-06
8.017932274e-09
6.259205418e-06
8.231309272e-09
6.259773218e-06
8.427268214e-09
6.260337187e-06
8.607425756e-09
6.260897049e-06
8.773305574e-09
6.261454581e-06
8.926778254e-09
6.262010393e-06
9.068834835e-09
6.262563008e-06
9.198987445e-09
6.263112463e-06
9.318220059e-09
6.26365926e-06
9.427611696e-09
6.264203398e-06
9.528386924e-09
6.264745151e-06
9.620747671e-09
6.265284796e-06
9.705759535e-09
6.265824661e-06
9.782394273e-09
6.266369006e-06
9.849043717e-09
6.266913735e-06
9.910472096e-09
6.267451479e-06
9.969907707e-09
6.267981145e-06
1.002463059e-08
6.268503824e-06
1.007370255e-08
6.2690195e-06
1.011773882e-08
6.269529332e-06
1.015692246e-08
6.270031687e-06
1.019352593e-08
6.270524574e-06
1.022798654e-08
6.27101162e-06
1.02571866e-08
6.271495344e-06
1.028131054e-08
6.271975923e-06
1.030167343e-08
6.272452981e-06
1.031881308e-08
6.272926212e-06
1.033295504e-08
6.2733955e-06
1.034421926e-08
6.273860762e-06
1.035274194e-08
6.274321928e-06
1.035864305e-08
6.274778792e-06
1.036207562e-08
6.275231572e-06
1.036315283e-08
6.275680112e-06
1.036222229e-08
6.276123783e-06
1.03593631e-08
6.276561892e-06
1.035502842e-08
6.276995393e-06
1.034761648e-08
6.27742635e-06
1.033506576e-08
6.277854849e-06
1.031906888e-08
6.278280674e-06
1.030031673e-08
6.278704127e-06
1.027830931e-08
6.279126436e-06
1.025213598e-08
6.279547359e-06
1.022283493e-08
6.279965486e-06
1.019208196e-08
6.280381259e-06
1.015796293e-08
6.280795887e-06
1.011881962e-08
6.281210629e-06
1.007380517e-08
6.281626798e-06
1.002220773e-08
6.282045842e-06
9.963157954e-09
6.282469388e-06
9.895596899e-09
6.282899288e-06
9.818273432e-09
6.283337675e-06
9.729720559e-09
6.283787013e-06
9.628230247e-09
6.28425012e-06
9.511786877e-09
6.284730252e-06
9.378346493e-09
6.285231434e-06
9.22414293e-09
6.285758595e-06
9.04613854e-09
6.286318322e-06
8.840607928e-09
6.286917814e-06
8.602414962e-09
6.287562439e-06
8.325020612e-09
6.288261129e-06
8.002344641e-09
6.289024248e-06
7.626652946e-09
6.289863943e-06
7.188275343e-09
6.290794617e-06
6.675455447e-09
6.29183384e-06
6.073452997e-09
6.293004332e-06
5.363502029e-09
6.294334016e-06
4.523447617e-09
6.295848274e-06
3.535796614e-09
6.297575579e-06
2.374972041e-09
6.299546912e-06
1.008534045e-09
6.301807176e-06
-6.140646995e-10
6.304419995e-06
-2.56330125e-09
6.30744921e-06
-4.905085576e-09
6.310961284e-06
-7.724711901e-09
6.315000734e-06
-1.112022488e-08
6.319571971e-06
-1.520216859e-08
6.324770512e-06
-2.021000201e-08
6.330690895e-06
-2.639191476e-08
6.33753823e-06
-3.414791672e-08
6.345493823e-06
-4.39303655e-08
6.354384944e-06
-5.618459018e-08
6.364014827e-06
-7.162942501e-08
6.373730071e-06
-9.122419758e-08
6.382383849e-06
-1.160588109e-07
6.386941219e-06
-1.472953484e-07
-1.853278688e-07
6.384112998e-06
6.250131554e-06
4.94119948e-10
6.250474529e-06
1.472764239e-09
6.250925092e-06
2.339247133e-09
6.251431888e-06
3.084145177e-09
6.251976909e-06
3.734580299e-09
6.252547131e-06
4.311018372e-09
6.253130855e-06
4.822066845e-09
6.253721688e-06
5.27589387e-09
6.254316055e-06
5.68114611e-09
6.254912389e-06
6.045184427e-09
6.255509551e-06
6.373876422e-09
6.256105307e-06
6.67125583e-09
6.256699722e-06
6.941913526e-09
6.257295095e-06
7.190817229e-09
6.257892455e-06
7.42057285e-09
6.258491605e-06
7.632158994e-09
6.259092117e-06
7.826756297e-09
6.259693671e-06
8.005871247e-09
6.26029601e-06
8.170967037e-09
6.260899446e-06
8.323341683e-09
6.261504206e-06
8.464075135e-09
6.262109552e-06
8.593641557e-09
6.262715018e-06
8.712753694e-09
6.263320371e-06
8.822259221e-09
6.26392574e-06
8.923017914e-09
6.264530979e-06
9.01550834e-09
6.265136525e-06
9.100213831e-09
6.265741532e-06
9.177386337e-09
6.266343874e-06
9.246702611e-09
6.266944914e-06
9.309431932e-09
6.267546835e-06
9.367986025e-09
6.268148935e-06
9.422530445e-09
6.268750168e-06
9.472469453e-09
6.269349956e-06
9.517950847e-09
6.269947664e-06
9.559215203e-09
6.270544213e-06
9.596976374e-09
6.271140393e-06
9.6318069e-09
6.27173484e-06
9.662739587e-09
6.272326829e-06
9.689321078e-09
6.272916501e-06
9.712001582e-09
6.273504017e-06
9.731297572e-09
6.274089471e-06
9.747500599e-09
6.274672897e-06
9.760793482e-09
6.275254349e-06
9.771289732e-09
6.275833855e-06
9.779137341e-09
6.27641154e-06
9.784389992e-09
6.276987522e-06
9.787170652e-09
6.277562332e-06
9.787412314e-09
6.278136519e-06
9.785175987e-09
6.278713247e-06
9.778300763e-09
6.279293056e-06
9.767807594e-09
6.279870866e-06
9.757255874e-09
6.280445338e-06
9.74459631e-09
6.28101665e-06
9.729004883e-09
6.281585585e-06
9.709374207e-09
6.282150019e-06
9.687702224e-09
6.282708789e-06
9.664064906e-09
6.283267129e-06
9.633742106e-09
6.283827987e-06
9.597103978e-09
6.28439226e-06
9.554547345e-09
6.284960552e-06
9.5055127e-09
6.285533665e-06
9.44909511e-09
6.286112592e-06
9.384230987e-09
6.286698527e-06
9.309661287e-09
6.28729291e-06
9.223890321e-09
6.287897475e-06
9.125155356e-09
6.288514311e-06
9.011394069e-09
6.289145925e-06
8.880173453e-09
6.289795581e-06
8.728690117e-09
6.290466391e-06
8.553332915e-09
6.291162395e-06
8.350134108e-09
6.291888569e-06
8.114434267e-09
6.292650411e-06
7.840572906e-09
6.293453767e-06
7.521664382e-09
6.294306262e-06
7.149849919e-09
6.295216934e-06
6.715980237e-09
6.296196169e-06
6.209040362e-09
6.297255696e-06
5.615929102e-09
6.298408024e-06
4.921124888e-09
6.299663934e-06
4.107591754e-09
6.301025937e-06
3.161444081e-09
6.302512986e-06
2.048748117e-09
6.304157486e-06
7.304717168e-10
6.306008877e-06
-8.42857124e-10
6.308113973e-06
-2.719160473e-09
6.310489821e-06
-4.939149213e-09
6.313164546e-06
-7.579810937e-09
6.316174775e-06
-1.073494103e-08
6.319570501e-06
-1.451595137e-08
6.323424048e-06
-1.905571511e-08
6.327760673e-06
-2.454662768e-08
6.332601508e-06
-3.123274927e-08
6.337873463e-06
-3.94198722e-08
6.343432412e-06
-4.948931449e-08
6.349099319e-06
-6.185149695e-08
6.354469714e-06
-7.699982015e-08
6.358763267e-06
-9.551775038e-08
6.360697445e-06
-1.179929892e-07
6.358278565e-06
-1.448764687e-07
-1.759982767e-07
6.348948973e-06
6.250083971e-06
4.101493074e-10
6.25032626e-06
1.230474932e-09
6.250675987e-06
1.989519999e-09
6.251093129e-06
2.667003668e-09
6.251557222e-06
3.270487213e-09
6.252055986e-06
3.812253744e-09
6.252579174e-06
4.298878717e-09
6.253119613e-06
4.735455119e-09
6.253672809e-06
5.127950009e-09
6.254235839e-06
5.482154143e-09
6.254806713e-06
5.803003063e-09
6.255383478e-06
6.094490811e-09
6.2559651e-06
6.360291088e-09
6.256551895e-06
6.604022446e-09
6.257144171e-06
6.828297133e-09
6.257741591e-06
7.034738236e-09
6.258343571e-06
7.22477691e-09
6.258949622e-06
7.399820223e-09
6.259559381e-06
7.561207711e-09
6.260172596e-06
7.710126821e-09
6.260789092e-06
7.847578558e-09
6.261408444e-06
7.974289561e-09
6.262030237e-06
8.090961485e-09
6.262654144e-06
8.198351604e-09
6.263279985e-06
8.297176619e-09
6.2639075e-06
8.387993305e-09
6.264536442e-06
8.471271917e-09
6.265166431e-06
8.547397774e-09
6.265796477e-06
8.616656583e-09
6.266426126e-06
8.679783106e-09
6.26705612e-06
8.737991626e-09
6.267686806e-06
8.791844029e-09
6.268317985e-06
8.841291171e-09
6.26894948e-06
8.886455865e-09
6.26958105e-06
8.927644557e-09
6.270212804e-06
8.965222201e-09
6.270845121e-06
8.999490756e-09
6.271477643e-06
9.030217123e-09
6.272109755e-06
9.057209095e-09
6.272741088e-06
9.080668755e-09
6.273371504e-06
9.100880802e-09
6.274000959e-06
9.118045841e-09
6.274629429e-06
9.132323833e-09
6.275256904e-06
9.143814035e-09
6.275883414e-06
9.152627608e-09
6.276509007e-06
9.15879752e-09
6.277133801e-06
9.162376037e-09
6.277757959e-06
9.163254932e-09
6.278381777e-06
9.161357468e-09
6.279003918e-06
9.156159516e-09
6.279624318e-06
9.147407364e-09
6.280245124e-06
9.136450695e-09
6.280866334e-06
9.123385676e-09
6.281487825e-06
9.107513557e-09
6.282108964e-06
9.088235797e-09
6.282731072e-06
9.065594258e-09
6.283355414e-06
9.039722639e-09
6.283980545e-06
9.008611045e-09
6.284606615e-06
8.971033586e-09
6.285234478e-06
8.926684266e-09
6.285864997e-06
8.874993997e-09
6.286499094e-06
8.814997991e-09
6.287137816e-06
8.745509126e-09
6.287782346e-06
8.665130885e-09
6.288434035e-06
8.572201738e-09
6.289094439e-06
8.464750857e-09
6.289765375e-06
8.340458371e-09
6.290448958e-06
8.196590665e-09
6.291147704e-06
8.029943443e-09
6.291864357e-06
7.8366803e-09
6.29260218e-06
7.612310577e-09
6.293365022e-06
7.351592692e-09
6.294157287e-06
7.048307872e-09
6.294983913e-06
6.695037752e-09
6.295850639e-06
6.283123706e-09
6.296764132e-06
5.80248813e-09
6.297731966e-06
5.241206268e-09
6.298762707e-06
4.585187347e-09
6.299865912e-06
3.817919922e-09
6.3010535e-06
2.92000412e-09
6.302344894e-06
1.870050124e-09
6.303755144e-06
6.384978754e-10
6.305298865e-06
-8.132493359e-10
6.306986338e-06
-2.53033009e-09
6.308832186e-06
-4.565008997e-09
6.310864687e-06
-6.971650656e-09
6.313105576e-06
-9.820699106e-09
6.315572918e-06
-1.320228403e-08
6.318282336e-06
-1.722536879e-08
6.321247276e-06
-2.202065511e-08
6.324455944e-06
-2.775529601e-08
6.327860298e-06
-3.463710383e-08
6.331354021e-06
-4.29135945e-08
6.334739194e-06
-5.287448781e-08
6.337716799e-06
-6.482910173e-08
6.339820859e-06
-7.910388066e-08
6.340332458e-06
-9.602934977e-08
6.338202354e-06
-1.158628851e-07
6.331984007e-06
-1.386581222e-07
-1.640329669e-07
6.320018698e-06
6.250060985e-06
3.491639426e-10
6.25024357e-06
1.047890242e-09
6.250521932e-06
1.711157599e-09
6.250869026e-06
2.319910224e-09
6.251267128e-06
2.872384698e-09
6.251705093e-06
3.374289157e-09
6.252174012e-06
3.829960094e-09
6.252666788e-06
4.242678705e-09
6.25317838e-06
4.616358127e-09
6.253705232e-06
4.955302062e-09
6.25424478e-06
5.263454619e-09
6.254794991e-06
5.544279716e-09
6.255354495e-06
5.80078765e-09
6.255922632e-06
6.035884969e-09
6.256498938e-06
6.251991163e-09
6.2570828e-06
6.450875991e-09
6.257673586e-06
6.633991676e-09
6.258270719e-06
6.802686402e-09
6.258873715e-06
6.958212099e-09
6.259482159e-06
7.101683144e-09
6.260095674e-06
7.234062833e-09
6.260713814e-06
7.356150166e-09
6.261336112e-06
7.468663622e-09
6.261962159e-06
7.572304361e-09
6.262591606e-06
7.667729551e-09
6.263224094e-06
7.755505469e-09
6.263859244e-06
7.836121369e-09
6.264496622e-06
7.910019726e-09
6.265135655e-06
7.977623657e-09
6.26577593e-06
8.0395086e-09
6.266417514e-06
8.096407327e-09
6.267060532e-06
8.148825838e-09
6.267704857e-06
8.196965665e-09
6.268350298e-06
8.241014922e-09
6.268996708e-06
8.281235203e-09
6.269644038e-06
8.317891989e-09
6.27029234e-06
8.351188838e-09
6.270941423e-06
8.381133698e-09
6.271590943e-06
8.407689128e-09
6.272240642e-06
8.430970083e-09
6.272890345e-06
8.451177824e-09
6.273539925e-06
8.468465297e-09
6.274189298e-06
8.482950611e-09
6.274838391e-06
8.494721565e-09
6.275487168e-06
8.503850868e-09
6.2761356e-06
8.510365341e-09
6.276783711e-06
8.514264723e-09
6.277431483e-06
8.515482597e-09
6.278078926e-06
8.513915015e-09
6.278725724e-06
8.509361152e-09
6.279371458e-06
8.501673003e-09
6.280016688e-06
8.491221029e-09
6.280661952e-06
8.478121604e-09
6.281307478e-06
8.4619875e-09
6.281953375e-06
8.442339054e-09
6.282600111e-06
8.418857867e-09
6.283248572e-06
8.39126198e-09
6.283898703e-06
8.358479465e-09
6.284550392e-06
8.319344437e-09
6.285203944e-06
8.273132958e-09
6.285859861e-06
8.219077073e-09
6.286518754e-06
8.15610424e-09
6.28718137e-06
8.082892855e-09
6.287848602e-06
7.997899419e-09
6.288521493e-06
7.899310564e-09
6.289201258e-06
7.784985716e-09
6.28988931e-06
7.652406435e-09
6.290587287e-06
7.498613235e-09
6.291297099e-06
7.320132102e-09
6.292020916e-06
7.11286244e-09
6.292761242e-06
6.871985271e-09
6.293520971e-06
6.591863292e-09
6.294303414e-06
6.265864407e-09
6.295112285e-06
5.886167364e-09
6.295951797e-06
5.443611834e-09
6.296826794e-06
4.927491084e-09
6.297742776e-06
4.325223661e-09
6.29870596e-06
3.622003278e-09
6.299723435e-06
2.800445264e-09
6.300803394e-06
1.840044711e-09
6.301956523e-06
7.16921165e-10
6.303193511e-06
-5.984903136e-10
6.304523338e-06
-2.143076669e-09
6.305953412e-06
-3.960403426e-09
6.307489442e-06
-6.101039138e-09
6.309139565e-06
-8.62177398e-09
6.310909561e-06
-1.159069541e-08
6.312798959e-06
-1.509168222e-08
6.314798704e-06
-1.922511329e-08
6.316887698e-06
-2.410964966e-08
6.319020179e-06
-2.988777707e-08
6.321111162e-06
-3.672808689e-08
6.323020035e-06
-4.482246712e-08
6.324526435e-06
-5.438088799e-08
6.32531385e-06
-6.561651678e-08
6.324938604e-06
-7.872863473e-08
6.322784962e-06
-9.387570836e-08
6.318037936e-06
-1.11115859e-07
6.309696553e-06
-1.303167394e-07
-1.510319968e-07
6.296695583e-06
6.25004806e-06
3.011034542e-10
6.250192891e-06
9.03059311e-10
6.250421217e-06
1.482832212e-09
6.25071571e-06
2.025417127e-09
6.251062345e-06
2.525749054e-09
6.251451238e-06
2.985396793e-09
6.251874584e-06
3.40661425e-09
6.25232584e-06
3.79142259e-09
6.252799967e-06
4.142231049e-09
6.253293193e-06
4.462076238e-09
6.253802692e-06
4.753955125e-09
6.254326253e-06
5.020718302e-09
6.254862127e-06
5.264913959e-09
6.255409114e-06
5.488897652e-09
6.25596637e-06
5.694736037e-09
6.256533114e-06
5.884131279e-09
6.257108591e-06
6.058514902e-09
6.257692109e-06
6.219168489e-09
6.258283059e-06
6.367261716e-09
6.2588809e-06
6.503842001e-09
6.259485133e-06
6.629830208e-09
6.260095257e-06
6.746026419e-09
6.260710775e-06
6.853145213e-09
6.261331227e-06
6.951852171e-09
6.261956192e-06
7.042765035e-09
6.26258526e-06
7.126437352e-09
6.263218018e-06
7.203363292e-09
6.263854037e-06
7.274000668e-09
6.264492866e-06
7.338794558e-09
6.265134145e-06
7.398229717e-09
6.265777718e-06
7.452833907e-09
6.266423496e-06
7.503047647e-09
6.267071307e-06
7.549154954e-09
6.267720947e-06
7.591375438e-09
6.268372245e-06
7.629936596e-09
6.269025079e-06
7.665057658e-09
6.269679355e-06
7.696912913e-09
6.270334899e-06
7.725590422e-09
6.270991452e-06
7.751136107e-09
6.271648779e-06
7.773643062e-09
6.272306706e-06
7.793250557e-09
6.272965086e-06
7.810085088e-09
6.273623794e-06
7.824242902e-09
6.274282722e-06
7.835793523e-09
6.274941788e-06
7.844784519e-09
6.275600922e-06
7.851231211e-09
6.276260069e-06
7.855118006e-09
6.276919162e-06
7.856388931e-09
6.277578123e-06
7.854954302e-09
6.278236796e-06
7.850687862e-09
6.278894981e-06
7.843487836e-09
6.279552821e-06
7.833381048e-09
6.280210635e-06
7.820308096e-09
6.280868634e-06
7.803988519e-09
6.281526957e-06
7.784015711e-09
6.282185852e-06
7.759963215e-09
6.282845768e-06
7.73134594e-09
6.283506887e-06
7.697360075e-09
6.284169207e-06
7.657024055e-09
6.284832898e-06
7.609442621e-09
6.285498296e-06
7.553678953e-09
6.286165822e-06
7.488577636e-09
6.286835977e-06
7.412738003e-09
6.287509359e-06
7.324517954e-09
6.288186675e-06
7.221994366e-09
6.288868756e-06
7.102904866e-09
6.289556569e-06
6.964593089e-09
6.290251236e-06
6.803945845e-09
6.290954054e-06
6.617314454e-09
6.291666501e-06
6.400414852e-09
6.292390261e-06
6.148225765e-09
6.29312725e-06
5.854873762e-09
6.293879637e-06
5.5134776e-09
6.294649836e-06
5.115968164e-09
6.295440545e-06
4.652903277e-09
6.296254788e-06
4.113247826e-09
6.297095926e-06
3.48408552e-09
6.297967652e-06
2.750277295e-09
6.298874017e-06
1.894079969e-09
6.299819419e-06
8.946426679e-10
6.300808872e-06
-2.725323261e-10
6.301847122e-06
-1.636739946e-09
6.302937214e-06
-3.233168474e-09
6.304079959e-06
-5.103149073e-09
6.305273413e-06
-7.294492733e-09
6.306513635e-06
-9.861996347e-09
6.307792628e-06
-1.286968793e-08
6.309094366e-06
-1.639342036e-08
6.310391178e-06
-2.052192584e-08
6.311639076e-06
-2.535754744e-08
6.312768942e-06
-3.10176437e-08
6.313675144e-06
-3.763428893e-08
6.314202893e-06
-4.53502162e-08
6.31413315e-06
-5.431114423e-08
6.313168991e-06
-6.465235837e-08
6.310919872e-06
-7.647951586e-08
6.306885567e-06
-8.984140356e-08
6.300456756e-06
-1.046870476e-07
6.29094779e-06
-1.208077739e-07
-1.377703e-07
6.277686093e-06
6.250039891e-06
2.612122871e-10
6.250159829e-06
7.831210524e-10
6.250352715e-06
1.289946995e-09
6.250607523e-06
1.770608358e-09
6.250913573e-06
2.219698933e-09
6.251262549e-06
2.636421045e-09
6.251647795e-06
3.021367987e-09
6.252063586e-06
3.37563164e-09
6.252505111e-06
3.700706521e-09
6.252968564e-06
3.998623355e-09
6.253450934e-06
4.271585059e-09
6.25394987e-06
4.521781951e-09
6.25446349e-06
4.751294454e-09
6.254990318e-06
4.962069326e-09
6.255529188e-06
5.155866088e-09
6.256079101e-06
5.334218075e-09
6.256639159e-06
5.498456892e-09
6.257208555e-06
5.649772212e-09
6.257786573e-06
5.789244347e-09
6.258372568e-06
5.917846857e-09
6.258965951e-06
6.036447174e-09
6.259566162e-06
6.145814886e-09
6.260172667e-06
6.246640779e-09
6.260784961e-06
6.339557891e-09
6.261402577e-06
6.425149303e-09
6.262025068e-06
6.50394577e-09
6.262652002e-06
6.57642985e-09
6.263282952e-06
6.643049931e-09
6.263917511e-06
6.704235432e-09
6.264555326e-06
6.760415078e-09
6.265196143e-06
6.812017326e-09
6.265839768e-06
6.859422494e-09
6.266485999e-06
6.902923228e-09
6.267134623e-06
6.94275173e-09
6.267785439e-06
6.979120869e-09
6.26843827e-06
7.012226489e-09
6.269092952e-06
7.042230414e-09
6.269749296e-06
7.069246494e-09
6.270407075e-06
7.093357093e-09
6.271066066e-06
7.114651909e-09
6.271726079e-06
7.133237788e-09
6.272386949e-06
7.149215159e-09
6.27304853e-06
7.162661942e-09
6.273710691e-06
7.173632504e-09
6.274373317e-06
7.182158893e-09
6.275036301e-06
7.188246571e-09
6.275699547e-06
7.191871979e-09
6.276362956e-06
7.192980251e-09
6.277026424e-06
7.191486202e-09
6.277689827e-06
7.187284608e-09
6.278353052e-06
7.180262949e-09
6.279016118e-06
7.170314844e-09
6.27967914e-06
7.157286526e-09
6.280342218e-06
7.140910454e-09
6.281005432e-06
7.12080103e-09
6.281668905e-06
7.096490725e-09
6.282332824e-06
7.067426316e-09
6.282997302e-06
7.032882284e-09
6.283662353e-06
6.991973127e-09
6.284328043e-06
6.943752603e-09
6.284994531e-06
6.88719053e-09
6.285662032e-06
6.821076556e-09
6.286330805e-06
6.743965855e-09
6.287001159e-06
6.654163406e-09
6.287673471e-06
6.549682445e-09
6.288348184e-06
6.428191785e-09
6.289025814e-06
6.286963031e-09
6.289706952e-06
6.122807835e-09
6.290392269e-06
5.931997043e-09
6.291082522e-06
5.710162312e-09
6.291778548e-06
5.452199113e-09
6.292481274e-06
5.152148128e-09
6.293191706e-06
4.803045389e-09
6.29391092e-06
4.396754537e-09
6.294640045e-06
3.923777938e-09
6.295380255e-06
3.373037438e-09
6.296132732e-06
2.731608559e-09
6.296898604e-06
1.984405782e-09
6.297678863e-06
1.11382022e-09
6.298474229e-06
9.92768266e-11
6.299284976e-06
-1.083279465e-09
6.300110331e-06
-2.46209499e-09
6.300947509e-06
-4.070346121e-09
6.301790952e-06
-5.946592034e-09
6.302631629e-06
-8.135170103e-09
6.303456382e-06
-1.068674951e-08
6.30424611e-06
-1.365941557e-08
6.304972624e-06
-1.711993511e-08
6.305595026e-06
-2.114432812e-08
6.306055212e-06
-2.581773341e-08
6.306271373e-06
-3.123380426e-08
6.306129774e-06
-3.749269022e-08
6.305475822e-06
-4.469626402e-08
6.304104739e-06
-5.294006125e-08
6.301753425e-06
-6.230104483e-08
6.298094514e-06
-7.282060446e-08
6.292735203e-06
-8.448209273e-08
6.285229168e-06
-9.718101286e-08
6.275110845e-06
-1.106894516e-07
-1.246214027e-07
6.261961948e-06
6.250034341e-06
2.268712404e-10
6.250137224e-06
6.802382535e-10
6.25030445e-06
1.122720315e-09
6.250528951e-06
1.546107621e-09
6.25080296e-06
1.945689757e-09
6.251119689e-06
2.319692528e-09
6.251473344e-06
2.66771258e-09
6.251858947e-06
2.99002895e-09
6.252272177e-06
3.28747615e-09
6.252709425e-06
3.561375135e-09
6.253167709e-06
3.813301381e-09
6.253644579e-06
4.044912083e-09
6.25413802e-06
4.257853119e-09
6.254646384e-06
4.453705878e-09
6.255168305e-06
4.633944516e-09
6.255702619e-06
4.799904262e-09
6.256248296e-06
4.952780374e-09