/*--------------------------------*- C++ -*----------------------------------*\
  =========                 |
  \\      /  F ield         | OpenFOAM: The Open Source CFD Toolbox
   \\    /   O peration     | Website:  https://openfoam.org
    \\  /    A nd           | Version:  8
     \\/     M anipulation  |
\*---------------------------------------------------------------------------*/
FoamFile
{
    version     2.0;
    format      ascii;
    class       volVectorField;
    location    "751";
    object      U;
}
// * * * * * * * * * * * * * * * * * * * * * * * * * * * * * * * * * * * * * //

dimensions      [0 1 -1 0 0 0 0];

internalField   nonuniform List<vector> 
25600
(
(99.96176462 0.01428808983 0)
(99.92387122 0.04112254121 0)
(99.85858607 0.05761480683 0)
(99.77379929 0.06961546072 0)
(99.67982725 0.07921758652 0)
(99.57965579 0.08737313343 0)
(99.47345757 0.09443894328 0)
(99.36152795 0.1006539436 0)
(99.24449906 0.1062315369 0)
(99.12300298 0.1112870926 0)
(98.99754758 0.1158856713 0)
(98.86854456 0.1200361584 0)
(98.73634657 0.1237406932 0)
(98.60131471 0.1270386719 0)
(98.46377069 0.1299772932 0)
(98.3239768 0.1326068145 0)
(98.18218858 0.1349566835 0)
(98.03865792 0.1370418512 0)
(97.8936182 0.1388740102 0)
(97.74727525 0.1404696571 0)
(97.59981721 0.1418551186 0)
(97.45143341 0.1430481493 0)
(97.30229487 0.1440396497 0)
(97.15254082 0.1448216001 0)
(97.00229908 0.1454017486 0)
(96.8516992 0.1457974344 0)
(96.70086752 0.1460249258 0)
(96.54991983 0.1460971553 0)
(96.39896021 0.1460258552 0)
(96.2480844 0.1458220766 0)
(96.09738664 0.145496467 0)
(95.9469601 0.1450599937 0)
(95.7968883 0.1445221843 0)
(95.64724139 0.1438901347 0)
(95.49807808 0.1431737943 0)
(95.34945091 0.1423813054 0)
(95.20141348 0.1415155725 0)
(95.05401617 0.140581083 0)
(94.90729836 0.1395828074 0)
(94.76129241 0.138525864 0)
(94.61603051 0.1374165289 0)
(94.47154523 0.1362615929 0)
(94.32786685 0.1350672784 0)
(94.1850221 0.1338388649 0)
(94.0430348 0.1325808897 0)
(93.90192629 0.1312974726 0)
(93.76171587 0.129991544 0)
(93.62242138 0.1286670039 0)
(93.48405854 0.1273277554 0)
(93.34664101 0.125975109 0)
(93.21018253 0.1246098799 0)
(93.07469811 0.1232326275 0)
(92.94020372 0.1218441254 0)
(92.80671501 0.1204459497 0)
(92.67424642 0.1190398641 0)
(92.54281158 0.1176273272 0)
(92.41242414 0.1162094901 0)
(92.28309791 0.1147878234 0)
(92.15484694 0.1133632751 0)
(92.02768697 0.1119352052 0)
(91.90163757 0.1105018417 0)
(91.77672275 0.1090610185 0)
(91.65297069 0.107610286 0)
(91.53041399 0.10614676 0)
(91.40909066 0.1046670421 0)
(91.28904528 0.1031671666 0)
(91.17033016 0.1016425177 0)
(91.05300669 0.1000877121 0)
(90.93714674 0.09849660051 0)
(90.82283429 0.096862164 0)
(90.71016721 0.0951772855 0)
(90.59925903 0.09343427661 0)
(90.49024538 0.09161880169 0)
(90.38329759 0.08970392542 0)
(90.27862168 0.087667098 0)
(90.17645263 0.08548626402 0)
(90.07706453 0.0831345215 0)
(89.98078536 0.08057802502 0)
(89.88800889 0.07777460834 0)
(89.79920687 0.07467193021 0)
(89.71494471 0.07120443418 0)
(89.63590102 0.06729021844 0)
(89.56289199 0.06282298348 0)
(89.49691861 0.05765358333 0)
(89.43923908 0.05144481821 0)
(89.39139243 0.04471179891 0)
(89.35529232 0.03701591612 0)
(89.33312658 0.02911147389 0)
(89.32791465 0.0178752626 0)
(89.34378932 0.004280673109 0)
(89.38641694 -0.01594007341 0)
(89.46293766 -0.03824079273 0)
(89.5822249 -0.06620919052 0)
(89.756973 -0.1035066273 0)
(90.00632836 -0.1558747977 0)
(90.3593993 -0.229306118 0)
(90.86469467 -0.3429644895 0)
(91.59862373 -0.4979788029 0)
(92.72169045 -0.8849776638 0)
(94.60768352 -1.055420198 0)
(100.0063444 0.03194279849 0)
(100.0272928 0.06645995967 0)
(100.0468271 0.08338120213 0)
(100.0553794 0.09478943958 0)
(100.0612544 0.1041377704 0)
(100.0660221 0.1117670738 0)
(100.0694038 0.118054093 0)
(100.0712748 0.1236060052 0)
(100.0718605 0.1283948172 0)
(100.0712899 0.1326366717 0)
(100.069615 0.1363639058 0)
(100.0668477 0.1398351068 0)
(100.0630595 0.1429611978 0)
(100.0583337 0.1456207708 0)
(100.0527064 0.1480938519 0)
(100.0461367 0.1502868426 0)
(100.0385895 0.1521917406 0)
(100.0300589 0.1538513375 0)
(100.0205571 0.1552924067 0)
(100.010092 0.156543276 0)
(99.99864001 0.1575819694 0)
(99.98618721 0.1584170431 0)
(99.97274261 0.1591701928 0)
(99.95831829 0.1598616876 0)
(99.94292239 0.1604653732 0)
(99.92656278 0.1609601786 0)
(99.90924785 0.161354583 0)
(99.89098608 0.1616584443 0)
(99.87178633 0.1618754304 0)
(99.85165886 0.161996981 0)
(99.83062217 0.1620230867 0)
(99.80870132 0.1619729741 0)
(99.78591692 0.161865485 0)
(99.76228795 0.1617084706 0)
(99.73782747 0.161503367 0)
(99.71254095 0.1612537503 0)
(99.68644491 0.1609734254 0)
(99.6595627 0.1606753457 0)
(99.6319104 0.1603581046 0)
(99.60350152 0.1600134335 0)
(99.57435304 0.1596371458 0)
(99.54448423 0.1592300934 0)
(99.51391415 0.1587947323 0)
(99.4826612 0.1583333297 0)
(99.45074404 0.1578470897 0)
(99.41818056 0.1573395854 0)
(99.38499103 0.1568089554 0)
(99.35119521 0.1562557821 0)
(99.31681146 0.1556861285 0)
(99.2818562 0.1550989297 0)
(99.24634902 0.1544925781 0)
(99.21031242 0.1538651653 0)
(99.17377197 0.1532151261 0)
(99.13675409 0.1525420594 0)
(99.09928391 0.1518453147 0)
(99.0613858 0.1511240063 0)
(99.02308521 0.1503761894 0)
(98.98440806 0.1496005717 0)
(98.94537898 0.1487952583 0)
(98.90602359 0.1479562739 0)
(98.86637203 0.1470786269 0)
(98.82645958 0.1461570021 0)
(98.78632554 0.1451852229 0)
(98.7460132 0.1441557234 0)
(98.70557059 0.1430594336 0)
(98.66505153 0.1418856521 0)
(98.62451662 0.1406218377 0)
(98.58403446 0.139252915 0)
(98.54368289 0.137761648 0)
(98.50355113 0.1361257172 0)
(98.46374123 0.1343207493 0)
(98.42436267 0.1323214461 0)
(98.38553294 0.1300984499 0)
(98.34741433 0.127613393 0)
(98.31021229 0.1248177233 0)
(98.27415112 0.1216514441 0)
(98.23948272 0.1180440014 0)
(98.20650362 0.1139122083 0)
(98.17556729 0.1091561943 0)
(98.14709483 0.1036560773 0)
(98.1215896 0.09726615859 0)
(98.09965526 0.08980696117 0)
(98.08201026 0.08106066364 0)
(98.06950317 0.07073922677 0)
(98.06311893 0.05850062648 0)
(98.06405248 0.04378128541 0)
(98.07382146 0.02589676802 0)
(98.09454259 0.003935529893 0)
(98.12883192 -0.02304361227 0)
(98.17956364 -0.05636638788 0)
(98.2503981 -0.0976521167 0)
(98.34597372 -0.1497574298 0)
(98.47287766 -0.2167667911 0)
(98.63979258 -0.305034383 0)
(98.85777532 -0.4244390492 0)
(99.14308997 -0.5924810328 0)
(99.51305041 -0.8370539669 0)
(99.99333136 -1.202129373 0)
(100.5567263 -1.79460942 0)
(101.1858551 -2.683523418 0)
(100.0024401 0.01815421525 0)
(100.011806 0.04113033977 0)
(100.0250912 0.0565804111 0)
(100.03799 0.06941732434 0)
(100.0495904 0.08054794679 0)
(100.0605653 0.09017817204 0)
(100.0709601 0.09846264901 0)
(100.0807547 0.1057404494 0)
(100.0899368 0.1122071692 0)
(100.0987731 0.1181304788 0)
(100.1071464 0.1234969792 0)
(100.1154232 0.1282886228 0)
(100.1238507 0.1326635306 0)
(100.1315748 0.13675581 0)
(100.1389493 0.140588357 0)
(100.1460946 0.1441703039 0)
(100.1529992 0.1475147846 0)
(100.1596682 0.1506328995 0)
(100.1661186 0.15352991 0)
(100.1723615 0.1562978071 0)
(100.1783072 0.158948049 0)
(100.1841017 0.1613931388 0)
(100.1897008 0.1636328317 0)
(100.1951071 0.1656865447 0)
(100.2003335 0.1675735563 0)
(100.2053801 0.1693129942 0)
(100.2102352 0.1709195646 0)
(100.2148793 0.172413028 0)
(100.2192898 0.1738290059 0)
(100.2234764 0.1751406586 0)
(100.2274735 0.1762929544 0)
(100.2312954 0.1772997081 0)
(100.2349259 0.178194722 0)
(100.2383474 0.1789787905 0)
(100.2415546 0.1797177599 0)
(100.2445527 0.1803737733 0)
(100.2473362 0.1808725711 0)
(100.2498834 0.1812963518 0)
(100.2521718 0.1816785012 0)
(100.2541976 0.1820104621 0)
(100.2559689 0.182285404 0)
(100.2574928 0.1825032167 0)
(100.2587718 0.1826670868 0)
(100.2598066 0.1827791698 0)
(100.2605994 0.1828410735 0)
(100.261144 0.1828541229 0)
(100.2614755 0.1828216191 0)
(100.2615227 0.1827462817 0)
(100.2613565 0.1826272688 0)
(100.2609546 0.1824622728 0)
(100.260317 0.1822421005 0)
(100.2594496 0.1819618891 0)
(100.2583627 0.1816281376 0)
(100.257067 0.1812472584 0)
(100.2555711 0.1808195445 0)
(100.2538828 0.1803442003 0)
(100.2520129 0.1798274539 0)
(100.2499725 0.1792724366 0)
(100.2477697 0.178668664 0)
(100.2454143 0.1780013852 0)
(100.2429222 0.1772598969 0)
(100.2403137 0.1764361249 0)
(100.237612 0.1755210895 0)
(100.234844 0.1745036156 0)
(100.2320413 0.1733703065 0)
(100.2292408 0.1721054393 0)
(100.2264854 0.1706906751 0)
(100.2238253 0.1691046866 0)
(100.2213166 0.1673230943 0)
(100.2190279 0.165321754 0)
(100.2170424 0.1630733235 0)
(100.215458 0.1605638111 0)
(100.2143887 0.1577013699 0)
(100.2139626 0.1542830583 0)
(100.2143294 0.1503478389 0)
(100.215669 0.1458219882 0)
(100.2181932 0.1405941604 0)
(100.2221521 0.1345292173 0)
(100.2278435 0.1274645899 0)
(100.2356214 0.1192052518 0)
(100.2459051 0.1095270565 0)
(100.2591951 0.09818162708 0)
(100.2760797 0.0848483091 0)
(100.297249 0.06909004548 0)
(100.3235174 0.05030192538 0)
(100.3558702 0.02776545654 0)
(100.39559 0.0005853380644 0)
(100.4441877 -0.03234275628 0)
(100.5035114 -0.07274894214 0)
(100.5760162 -0.1231408232 0)
(100.6646302 -0.186212422 0)
(100.7723041 -0.2654244926 0)
(100.903273 -0.3654158849 0)
(101.0609885 -0.4929393657 0)
(101.2491457 -0.661015046 0)
(101.4775875 -0.8855556753 0)
(101.7238921 -1.192701131 0)
(102.0038257 -1.616508885 0)
(102.2484238 -2.221557889 0)
(102.4946484 -3.036050852 0)
(100.0011177 0.01155493073 0)
(100.0065209 0.03229391387 0)
(100.0160772 0.04901733442 0)
(100.0266031 0.06269570871 0)
(100.036812 0.0742037078 0)
(100.0469431 0.08405006179 0)
(100.0570986 0.09251289439 0)
(100.067165 0.09988630997 0)
(100.0770503 0.1063792302 0)
(100.0867727 0.1121589662 0)
(100.0963828 0.117336736 0)
(100.105821 0.1219392953 0)
(100.1151156 0.1261221009 0)
(100.1243365 0.1300352709 0)
(100.1335454 0.1336737233 0)
(100.1427249 0.1370069965 0)
(100.1518441 0.1400408295 0)
(100.1608993 0.1428031072 0)
(100.1698901 0.1453201507 0)
(100.1788237 0.1476233593 0)
(100.1877278 0.1497287859 0)
(100.1965949 0.1516299333 0)
(100.2054202 0.1533536346 0)
(100.2141802 0.1549259657 0)
(100.2229187 0.1563710224 0)
(100.2315881 0.1576905657 0)
(100.2402624 0.1589057492 0)
(100.2488451 0.1600007444 0)
(100.257496 0.1609420402 0)
(100.2663237 0.1617536784 0)
(100.2749665 0.1624941179 0)
(100.283482 0.1631694497 0)
(100.291898 0.1637753489 0)
(100.3002169 0.1643155491 0)
(100.3084025 0.1647772585 0)
(100.316556 0.165206319 0)
(100.324472 0.1656464996 0)
(100.3322892 0.1660461587 0)
(100.3400673 0.1663755467 0)
(100.3477866 0.1666388889 0)
(100.3554473 0.1668443017 0)
(100.3630494 0.1669984747 0)
(100.3705894 0.1671065116 0)
(100.3780665 0.1671714462 0)
(100.3854784 0.1671958836 0)
(100.3928231 0.1671817498 0)
(100.4000999 0.1671336467 0)
(100.4073106 0.1670568712 0)
(100.414449 0.1669483995 0)
(100.4215076 0.1668279653 0)
(100.4284776 0.1666990551 0)
(100.4353875 0.1665090313 0)
(100.4422595 0.1662503489 0)
(100.4490941 0.1659335888 0)
(100.4558897 0.1655663365 0)
(100.4626514 0.1651330302 0)
(100.4693963 0.1646127363 0)
(100.4761114 0.1640519398 0)
(100.4827846 0.1634600212 0)
(100.4894243 0.1628163177 0)
(100.4960532 0.1621001076 0)
(100.5026947 0.1612957761 0)
(100.509371 0.1603883873 0)
(100.5161058 0.1593612086 0)
(100.5229263 0.158195177 0)
(100.5298644 0.1568684483 0)
(100.5369567 0.1553559852 0)
(100.5442461 0.1536272313 0)
(100.5517795 0.1516561786 0)
(100.559614 0.1493684543 0)
(100.5678223 0.1467264114 0)
(100.5764938 0.1436806625 0)
(100.5857398 0.1401669865 0)
(100.5956666 0.1361063076 0)
(100.6063844 0.1313999689 0)
(100.6180398 0.1259276772 0)
(100.630815 0.1195467069 0)
(100.6449232 0.1120859903 0)
(100.6606165 0.1033335566 0)
(100.678211 0.09302542194 0)
(100.6981005 0.08077371723 0)
(100.720755 0.0662352404 0)
(100.7465627 0.04907085597 0)
(100.7760574 0.02885884654 0)
(100.8097233 0.005018179971 0)
(100.8484768 -0.02351062449 0)
(100.8933502 -0.05789566852 0)
(100.9453556 -0.09954968975 0)
(101.0058864 -0.1501779977 0)
(101.0753477 -0.2116091129 0)
(101.1515112 -0.2872018873 0)
(101.2422517 -0.3810471636 0)
(101.3398833 -0.4991107568 0)
(101.4602898 -0.6492891481 0)
(101.5956982 -0.8413621808 0)
(101.7438603 -1.087481333 0)
(101.9006266 -1.406235772 0)
(102.0478027 -1.817914026 0)
(102.1708977 -2.355535393 0)
(102.1901193 -3.025515303 0)
(100.0006662 0.008892190888 0)
(100.0039715 0.02595346798 0)
(100.0105366 0.0405860161 0)
(100.0186276 0.05292056639 0)
(100.0271963 0.0635874078 0)
(100.0361117 0.07298629864 0)
(100.0453557 0.08128463631 0)
(100.0547899 0.0886357078 0)
(100.0642928 0.09518699337 0)
(100.0738211 0.1010677073 0)
(100.0833735 0.1063734896 0)
(100.0929237 0.1111711499 0)
(100.1024461 0.1155514597 0)
(100.1119569 0.1195940227 0)
(100.1214921 0.1233260367 0)
(100.1310642 0.1267607291 0)
(100.1406642 0.1299208242 0)
(100.1502824 0.1328337368 0)
(100.1599149 0.1355247129 0)
(100.1695589 0.1380181891 0)
(100.1792245 0.1403303595 0)
(100.1889062 0.1424648253 0)
(100.1985969 0.1444342703 0)
(100.2082826 0.1462507965 0)
(100.2179699 0.1479269865 0)
(100.2276532 0.1494682332 0)
(100.2373384 0.1508837331 0)
(100.2470258 0.1521748069 0)
(100.2566887 0.1533246118 0)
(100.2663182 0.1543674743 0)
(100.2759352 0.1553596814 0)
(100.2855639 0.1562955282 0)
(100.2951943 0.1571550354 0)
(100.304809 0.1579348557 0)
(100.3143882 0.1586399482 0)
(100.3239423 0.1592853605 0)
(100.3334794 0.1598791219 0)
(100.3430058 0.1603986539 0)
(100.3525027 0.1608378639 0)
(100.3619561 0.1612103002 0)
(100.3713732 0.1615284712 0)
(100.3807551 0.1617987454 0)
(100.3901079 0.1620232818 0)
(100.3994244 0.1622037254 0)
(100.4087155 0.1623421103 0)
(100.4179676 0.1624398918 0)
(100.4272038 0.1624992527 0)
(100.4363973 0.1625213606 0)
(100.4456043 0.1625084311 0)
(100.4547409 0.1624278771 0)
(100.4640679 0.1622742781 0)
(100.4733468 0.1620880652 0)
(100.4825284 0.1618643241 0)
(100.4917198 0.1616025168 0)
(100.5007987 0.1612786731 0)
(100.5099606 0.1609228517 0)
(100.5188675 0.1605587129 0)
(100.5277866 0.1601232888 0)
(100.5367511 0.1595959304 0)
(100.5457532 0.1589701794 0)
(100.5548088 0.158237994 0)
(100.5639357 0.1573885038 0)
(100.5731483 0.1564076254 0)
(100.5824628 0.1552776173 0)
(100.5918998 0.153976864 0)
(100.6014846 0.1524796041 0)
(100.6112478 0.1507555232 0)
(100.6212256 0.1487690561 0)
(100.631464 0.1464795113 0)
(100.6420146 0.1438361483 0)
(100.6529341 0.1407799353 0)
(100.6642926 0.1372418087 0)
(100.6761749 0.1331352175 0)
(100.6886729 0.1283488212 0)
(100.7018918 0.1227636945 0)
(100.7159621 0.1162440105 0)
(100.7310399 0.1086251657 0)
(100.7473038 0.09970795948 0)
(100.7649466 0.08924748312 0)
(100.7841894 0.0769619464 0)
(100.8052807 0.06263881564 0)
(100.8277084 0.04583633925 0)
(100.8528649 0.0259815902 0)
(100.880226 0.002332895096 0)
(100.912108 -0.02593882929 0)
(100.9478803 -0.05962937488 0)
(100.9880906 -0.09989322769 0)
(101.0334101 -0.1481871083 0)
(101.0844871 -0.2062546944 0)
(101.1422693 -0.2760681383 0)
(101.2075414 -0.3608742954 0)
(101.280914 -0.4647409408 0)
(101.3619039 -0.5932572771 0)
(101.4490496 -0.7535879705 0)
(101.5395958 -0.9528788107 0)
(101.6291197 -1.200432061 0)
(101.708972 -1.50844741 0)
(101.763277 -1.89087987 0)
(101.7666492 -2.358954666 0)
(101.6826996 -2.912434731 0)
(100.0004347 0.00723397545 0)
(100.0026492 0.02139795659 0)
(100.007445 0.03428086337 0)
(100.0138522 0.04565566472 0)
(100.0210525 0.055731663 0)
(100.0287849 0.06472998309 0)
(100.0369776 0.07276638484 0)
(100.0455174 0.07994142594 0)
(100.0542906 0.08636761817 0)
(100.0632315 0.09214993036 0)
(100.0723097 0.0973753917 0)
(100.0814983 0.1021121919 0)
(100.0907699 0.1064261572 0)
(100.1001164 0.1103811104 0)
(100.109547 0.1140204451 0)
(100.119065 0.1173705326 0)
(100.128663 0.1204540733 0)
(100.1383292 0.1232933878 0)
(100.1480575 0.1259102031 0)
(100.1578421 0.1283235712 0)
(100.1676804 0.1305487388 0)
(100.1775685 0.132595887 0)
(100.1874996 0.1344770159 0)
(100.1974666 0.136204977 0)
(100.2074655 0.1377921836 0)
(100.217493 0.1392479075 0)
(100.2275455 0.1405799796 0)
(100.237618 0.1417931224 0)
(100.2477031 0.142891314 0)
(100.2577825 0.1438938823 0)
(100.267857 0.14482278 0)
(100.2779407 0.1456798463 0)
(100.2880356 0.1464615214 0)
(100.2981384 0.1471724007 0)
(100.3082443 0.1478188687 0)
(100.3183503 0.1484094274 0)
(100.3284618 0.1489481416 0)
(100.3385801 0.1494274839 0)
(100.3487009 0.1498456707 0)
(100.3588099 0.1502074334 0)
(100.3689048 0.1505174855 0)
(100.3789831 0.1507784215 0)
(100.3890475 0.1509925903 0)
(100.3990939 0.1511617062 0)
(100.4091274 0.1512878385 0)
(100.4191418 0.1513717718 0)
(100.4291475 0.1514148813 0)
(100.4391344 0.1514155288 0)
(100.4491211 0.1513735027 0)
(100.4590883 0.1512737862 0)
(100.4690326 0.1511109714 0)
(100.4789584 0.1509217885 0)
(100.4888894 0.1507068123 0)
(100.4988324 0.1504499606 0)
(100.5087739 0.150137579 0)
(100.5187212 0.1497722334 0)
(100.528686 0.1493621515 0)
(100.5386801 0.1488647274 0)
(100.548693 0.1482617472 0)
(100.5587235 0.1475529008 0)
(100.5687861 0.1467330553 0)
(100.5788987 0.1457889136 0)
(100.5890774 0.1447023963 0)
(100.5993391 0.1434518919 0)
(100.6097037 0.1420118137 0)
(100.6201944 0.1403519552 0)
(100.6308381 0.1384369035 0)
(100.6416661 0.1362249934 0)
(100.6527151 0.1336676478 0)
(100.6640274 0.1307051316 0)
(100.6756508 0.1272682753 0)
(100.6876414 0.1232766436 0)
(100.7000651 0.1186339527 0)
(100.712997 0.1132254561 0)
(100.7265218 0.1069199653 0)
(100.7407378 0.099563184 0)
(100.7557589 0.09096997959 0)
(100.771714 0.08092020179 0)
(100.7887497 0.06915540349 0)
(100.8070301 0.05537641665 0)
(100.8268054 0.03928283135 0)
(100.848338 0.02041465022 0)
(100.8719146 -0.00185372633 0)
(100.8977058 -0.0282774453 0)
(100.9259274 -0.05972906502 0)
(100.9568717 -0.09700948199 0)
(100.9909529 -0.1412353437 0)
(101.0285374 -0.1938713642 0)
(101.0698892 -0.2566975651 0)
(101.1152318 -0.3318865119 0)
(101.1646253 -0.4223970779 0)
(101.2176738 -0.5318808827 0)
(101.2732222 -0.6648526745 0)
(101.3289413 -0.8265426933 0)
(101.3809383 -1.022630396 0)
(101.4232625 -1.259726429 0)
(101.4467726 -1.545062906 0)
(101.4377346 -1.884910045 0)
(101.3764364 -2.282185831 0)
(101.2377628 -2.731868948 0)
(100.0003204 0.006077546819 0)
(100.0019561 0.01809358965 0)
(100.0056448 0.02938932513 0)
(100.0108225 0.03965875179 0)
(100.0169031 0.04891181761 0)
(100.0236304 0.05726903427 0)
(100.0309065 0.06481722169 0)
(100.0386275 0.07162482542 0)
(100.0466864 0.07776889765 0)
(100.0550089 0.08332862993 0)
(100.0635495 0.08837459544 0)
(100.0722758 0.09296696807 0)
(100.0811588 0.09715938691 0)
(100.0901828 0.1010032516 0)
(100.0993405 0.104538265 0)
(100.1086235 0.1077917943 0)
(100.1180231 0.1107874055 0)
(100.127529 0.1135472731 0)
(100.1371321 0.1160920068 0)
(100.1468253 0.1184401143 0)
(100.1566024 0.1206073967 0)
(100.1664573 0.1226065158 0)
(100.1763826 0.1244492452 0)
(100.1863712 0.1261471663 0)
(100.1964165 0.1277110937 0)
(100.2065133 0.1291498929 0)
(100.2166559 0.1304710928 0)
(100.2268378 0.1316812262 0)
(100.2370514 0.1327867101 0)
(100.2472878 0.1337981511 0)
(100.2575428 0.1347285619 0)
(100.2678188 0.1355858595 0)
(100.2781175 0.1363735005 0)
(100.2884365 0.1370950626 0)
(100.2987722 0.1377547675 0)
(100.3091224 0.1383570927 0)
(100.3194873 0.1389051881 0)
(100.3298666 0.1393976761 0)
(100.3402568 0.1398335187 0)
(100.3506519 0.1402149606 0)
(100.3610482 0.1405453132 0)
(100.3714426 0.1408273097 0)
(100.3818348 0.1410633677 0)
(100.3922224 0.1412551542 0)
(100.402606 0.1414041931 0)
(100.4129833 0.1415109835 0)
(100.4233561 0.1415758615 0)
(100.4337226 0.1415974034 0)
(100.4440845 0.1415737634 0)
(100.4544396 0.1414996605 0)
(100.464782 0.14137617 0)
(100.4751074 0.1412146727 0)
(100.4854292 0.1410130533 0)
(100.4957544 0.1407630838 0)
(100.5060854 0.1404567814 0)
(100.5164251 0.140093577 0)
(100.5267837 0.1396682713 0)
(100.5371709 0.1391579089 0)
(100.5475862 0.1385461582 0)
(100.558028 0.137824426 0)
(100.5685018 0.1369811647 0)
(100.5790175 0.1359993272 0)
(100.5895866 0.1348582746 0)
(100.6002221 0.1335342271 0)
(100.610939 0.1319993177 0)
(100.6217555 0.1302206081 0)
(100.6326926 0.1281592878 0)
(100.6437745 0.1257696443 0)
(100.6550294 0.1229979383 0)
(100.66649 0.119780321 0)
(100.6781934 0.1160421611 0)
(100.6901826 0.111696079 0)
(100.7025071 0.106638824 0)
(100.7152231 0.1007482628 0)
(100.7283938 0.09388131507 0)
(100.7420912 0.08587028235 0)
(100.7563977 0.07651770166 0)
(100.7714068 0.06559136465 0)
(100.787225 0.05281950233 0)
(100.8039725 0.0378833026 0)
(100.8217975 0.02041363914 0)
(100.8408737 -7.885288884e-05 0)
(100.8613694 -0.02420024796 0)
(100.8834193 -0.05266590227 0)
(100.907125 -0.0862795728 0)
(100.9325868 -0.1259360923 0)
(100.9599199 -0.1727665523 0)
(100.9891877 -0.2281786458 0)
(101.0203281 -0.2938635741 0)
(101.0531111 -0.3718453959 0)
(101.0870375 -0.4646197395 0)
(101.1211219 -0.5751874628 0)
(101.1536311 -0.7070466675 0)
(101.1817598 -0.8641408303 0)
(101.2012947 -1.050628234 0)
(101.2062618 -1.270683302 0)
(101.1883516 -1.528020925 0)
(101.1362864 -1.824789537 0)
(101.0355373 -2.159848405 0)
(100.8692316 -2.526032625 0)
(100.0002545 0.005206015684 0)
(100.0015464 0.01552782607 0)
(100.0045106 0.02540765601 0)
(100.0088066 0.03458700457 0)
(100.0140245 0.04300091332 0)
(100.0199465 0.05069510848 0)
(100.0264671 0.05771836774 0)
(100.033489 0.06411112302 0)
(100.0409144 0.069921853 0)
(100.0486692 0.07520718091 0)
(100.0567016 0.08002165645 0)
(100.0649756 0.08441618462 0)
(100.0734579 0.0884344514 0)
(100.0821256 0.09211777222 0)
(100.0909629 0.09550175797 0)
(100.0999577 0.09861501157 0)
(100.1090985 0.1014812703 0)
(100.1183733 0.1041218096 0)
(100.1277716 0.1065560596 0)
(100.1372841 0.1088013395 0)
(100.1469026 0.1108727143 0)
(100.1566194 0.1127830534 0)
(100.1664265 0.1145439195 0)
(100.1763162 0.1161662143 0)
(100.1862813 0.1176600622 0)
(100.1963151 0.1190344034 0)
(100.2064113 0.1202971844 0)
(100.2165633 0.1214557557 0)
(100.2267639 0.1225173481 0)
(100.2370063 0.123490461 0)
(100.247286 0.1243847563 0)
(100.257601 0.1252077131 0)
(100.2679502 0.1259635429 0)
(100.2783306 0.1266555166 0)
(100.2887389 0.1272873317 0)
(100.2991725 0.1278627381 0)
(100.3096297 0.1283846634 0)
(100.3201088 0.1288540676 0)
(100.3306066 0.1292714133 0)
(100.3411187 0.1296384045 0)
(100.3516415 0.1299576467 0)
(100.3621725 0.1302314119 0)
(100.3727097 0.1304614002 0)
(100.3832512 0.1306487995 0)
(100.3937956 0.1307945003 0)
(100.4043414 0.1308987866 0)
(100.4148879 0.1309614748 0)
(100.425434 0.1309815227 0)
(100.4359788 0.1309573485 0)
(100.4465204 0.1308866739 0)
(100.4570565 0.1307681878 0)
(100.4675839 0.13060376 0)
(100.478108 0.1303925397 0)
(100.4886335 0.1301301768 0)
(100.4991635 0.1298105905 0)
(100.5097004 0.12942785 0)
(100.5202493 0.1289744905 0)
(100.5308164 0.1284360873 0)
(100.5414037 0.1277968976 0)
(100.5520117 0.1270433448 0)
(100.5626433 0.1261608843 0)
(100.5733049 0.12513147 0)
(100.5840043 0.1239333547 0)
(100.5947503 0.1225410145 0)
(100.6055531 0.1209244278 0)
(100.6164251 0.1190481919 0)
(100.6273804 0.1168706765 0)
(100.6384359 0.1143430068 0)
(100.6496108 0.1114078416 0)
(100.6609271 0.1079977391 0)
(100.6724102 0.1040336039 0)
(100.6840887 0.09942277572 0)
(100.6959953 0.0940564598 0)
(100.7081665 0.08780682331 0)
(100.7206432 0.0805241971 0)
(100.733471 0.07203359947 0)
(100.746701 0.06212993299 0)
(100.7603894 0.0505724063 0)
(100.7745983 0.03707841684 0)
(100.7893951 0.02131492617 0)
(100.8048543 0.002889802276 0)
(100.8210561 -0.01867311483 0)
(100.8380683 -0.04394973657 0)
(100.8559263 -0.07361806716 0)
(100.874622 -0.1084651525 0)
(100.8941067 -0.1493952171 0)
(100.9142884 -0.1974809051 0)
(100.9349894 -0.2540060694 0)
(100.9558771 -0.3204881169 0)
(100.9763961 -0.3987035346 0)
(100.9956711 -0.4907356509 0)
(101.0123486 -0.5989837784 0)
(101.0243988 -0.7261088695 0)
(101.0288899 -0.874923183 0)
(101.0217523 -1.048160035 0)
(100.9975489 -1.248165045 0)
(100.9492213 -1.476428608 0)
(100.8679227 -1.732763614 0)
(100.7431979 -2.014130084 0)
(100.5638747 -2.313180001 0)
(100.0002121 0.004502251806 0)
(100.0012826 0.01343564957 0)
(100.0037567 0.02208059238 0)
(100.0074157 0.03023926064 0)
(100.0119682 0.03782234164 0)
(100.017241 0.04482991991 0)
(100.0231357 0.05128127104 0)
(100.0295669 0.05720092373 0)
(100.0364458 0.06261708599 0)
(100.0437016 0.06756878939 0)
(100.0512801 0.07209683893 0)
(100.0591399 0.07624094181 0)
(100.0672479 0.08003858729 0)
(100.0755775 0.08352413769 0)
(100.0841078 0.08672800443 0)
(100.0928219 0.08967607089 0)
(100.1017052 0.09239057512 0)
(100.1107441 0.09489139427 0)
(100.1199264 0.09719656848 0)
(100.1292411 0.09932228056 0)
(100.1386784 0.101282862 0)
(100.1482294 0.1030909421 0)
(100.1578853 0.1047578636 0)
(100.1676377 0.1062940721 0)
(100.1774789 0.1077091856 0)
(100.1874015 0.1090119011 0)
(100.1973987 0.1102100889 0)
(100.2074634 0.1113110683 0)
(100.2175892 0.1123219222 0)
(100.2277697 0.1132499719 0)
(100.2379998 0.1141026824 0)
(100.2482761 0.114886407 0)
(100.2585957 0.1156057554 0)
(100.2689553 0.116264461 0)
(100.2793517 0.1168661177 0)
(100.2897816 0.1174140448 0)
(100.3002423 0.117910888 0)
(100.3107313 0.1183582966 0)
(100.3212451 0.118757438 0)
(100.3317802 0.1191098265 0)
(100.3423331 0.1194173632 0)
(100.3529008 0.119681786 0)
(100.363481 0.1199044499 0)
(100.3740714 0.1200863303 0)
(100.3846702 0.1202280521 0)
(100.3952755 0.1203297707 0)
(100.4058857 0.1203911649 0)
(100.4164994 0.1204113521 0)
(100.4271147 0.1203889723 0)
(100.4377302 0.1203222857 0)
(100.4483439 0.1202096901 0)
(100.4589541 0.1200503076 0)
(100.4695624 0.1198421312 0)
(100.4801707 0.1195808886 0)
(100.4907807 0.1192603648 0)
(100.5013938 0.1188732258 0)
(100.5120122 0.1184107914 0)
(100.5226388 0.1178609049 0)
(100.5332749 0.1172090158 0)
(100.5439207 0.1164402798 0)
(100.5545777 0.1155386765 0)
(100.5652487 0.1144851761 0)
(100.5759378 0.1132569479 0)
(100.5866496 0.1118271377 0)
(100.5973895 0.1101642465 0)
(100.608164 0.108231294 0)
(100.6189807 0.105984974 0)
(100.6298486 0.1033745987 0)
(100.6407776 0.1003408058 0)
(100.6517792 0.09681401126 0)
(100.6628661 0.09271279784 0)
(100.6740525 0.08794197862 0)
(100.6853538 0.08239018713 0)
(100.6967867 0.07592709835 0)
(100.7083689 0.06840041198 0)
(100.720119 0.05963228754 0)
(100.7320558 0.04941488263 0)
(100.744198 0.03750506999 0)
(100.756563 0.02361838108 0)
(100.7691648 0.007421343721 0)
(100.7820121 -0.01147732233 0)
(100.7951028 -0.03354089076 0)
(100.8084121 -0.05931823846 0)
(100.8218771 -0.08945045789 0)
(100.8353839 -0.1246778734 0)
(100.8487571 -0.1658493582 0)
(100.8617442 -0.2139474457 0)
(100.8739786 -0.2701164314 0)
(100.8849224 -0.3356768095 0)
(100.8938014 -0.4121306542 0)
(100.8995203 -0.5011642487 0)
(100.9005469 -0.604624322 0)
(100.8947717 -0.724444279 0)
(100.8793582 -0.8625139535 0)
(100.8505985 -1.020470018 0)
(100.8037965 -1.199402596 0)
(100.7332026 -1.399447424 0)
(100.632073 -1.6192007 0)
(100.4929956 -1.854988164 0)
(100.3086546 -2.100108752 0)
(100.0001828 0.003906761387 0)
(100.001103 0.01167163761 0)
(100.0032344 0.01922924185 0)
(100.0064229 0.0264351855 0)
(100.0104601 0.03321230815 0)
(100.0152128 0.03953432722 0)
(100.020595 0.04539806159 0)
(100.0265284 0.05081263785 0)
(100.0329374 0.05579716728 0)
(100.0397563 0.06037777869 0)
(100.0469326 0.06458387093 0)
(100.0544236 0.06844565703 0)
(100.0621942 0.07199256884 0)
(100.0702153 0.07525246885 0)
(100.0784631 0.07825098891 0)
(100.0869176 0.08101102159 0)
(100.0955616 0.08355287293 0)
(100.1043797 0.08589480111 0)
(100.1133579 0.08805336871 0)
(100.1224838 0.09004353063 0)
(100.1317463 0.09187868905 0)
(100.1411348 0.09357082613 0)
(100.1506399 0.09513074177 0)
(100.1602525 0.0965682988 0)
(100.169964 0.09789254525 0)
(100.1797666 0.09911174405 0)
(100.1896529 0.100233455 0)
(100.1996156 0.1012647092 0)
(100.2096482 0.1022121974 0)
(100.2197445 0.1030824412 0)
(100.229899 0.1038817392 0)
(100.2401074 0.1046157016 0)
(100.2503659 0.1052889079 0)
(100.2606708 0.1059051429 0)
(100.2710183 0.1064677644 0)
(100.2814051 0.1069797552 0)
(100.2918277 0.1074435952 0)
(100.3022831 0.1078611709 0)
(100.3127679 0.1082339737 0)
(100.3232786 0.1085634705 0)
(100.3338117 0.1088512058 0)
(100.3443643 0.1090985935 0)
(100.3549336 0.109306746 0)
(100.365517 0.10947643 0)
(100.3761123 0.1096080598 0)
(100.3867173 0.1097016444 0)
(100.3973299 0.1097567554 0)
(100.4079481 0.1097725006 0)
(100.4185698 0.1097475353 0)
(100.4291931 0.1096801677 0)
(100.4398164 0.1095684822 0)
(100.4504377 0.1094103191 0)
(100.4610568 0.1092026447 0)
(100.4716738 0.1089409322 0)
(100.482289 0.1086190559 0)
(100.4929023 0.1082294983 0)
(100.5035139 0.1077631978 0)
(100.5141241 0.1072087547 0)
(100.5247325 0.1065525115 0)
(100.5353379 0.1057793361 0)
(100.5459396 0.1048723058 0)
(100.5565373 0.1038116939 0)
(100.5671311 0.1025741259 0)
(100.5777213 0.1011322714 0)
(100.5883084 0.09945410194 0)
(100.598893 0.09750195059 0)
(100.609476 0.09523187199 0)
(100.6200584 0.09259262762 0)
(100.6306409 0.08952430028 0)
(100.641224 0.08595669102 0)
(100.651808 0.08180802042 0)
(100.6623922 0.0769828863 0)
(100.6729749 0.07136999009 0)
(100.6835529 0.06483947539 0)
(100.6941207 0.05723991728 0)
(100.7046696 0.04839486448 0)
(100.7151872 0.03809881345 0)
(100.7256552 0.02611247585 0)
(100.7360476 0.01215726287 0)
(100.7463277 -0.004091298753 0)
(100.7564437 -0.02301117641 0)
(100.7663221 -0.04504330531 0)
(100.7758578 -0.07070108346 0)
(100.784901 -0.1005771857 0)
(100.7932428 -0.1353497876 0)
(100.8006004 -0.1757902804 0)
(100.8065959 -0.2227756121 0)
(100.8107245 -0.2773004887 0)
(100.8123084 -0.3404805358 0)
(100.810441 -0.4135444866 0)
(100.8039197 -0.4978147875 0)
(100.7911635 -0.5946653755 0)
(100.7701203 -0.7054415696 0)
(100.7381756 -0.8313332942 0)
(100.6920797 -0.9731913031 0)
(100.6279128 -1.131279717 0)
(100.541119 -1.304958294 0)
(100.4266547 -1.492288071 0)
(100.2793298 -1.689598085 0)
(100.0944132 -1.89111084 0)
(100.0001614 0.003389415325 0)
(100.0009734 0.0101320247 0)
(100.0028587 0.01672393032 0)
(100.0056989 0.0230552027 0)