cellI,x,y,z,V,Ux,Uy,Uz
0,0.000125,0.000125,0.000125,1.5625e-11,99.96176462,0.01428808983,0
1,0.000375,0.000125,0.000125,1.5625e-11,99.92387122,0.04112254121,0
2,0.000625,0.000125,0.000125,1.5625e-11,99.85858607,0.05761480683,0
3,0.000875,0.000125,0.000125,1.5625e-11,99.77379929,0.06961546072,0
4,0.001125,0.000125,0.000125,1.5625e-11,99.67982725,0.07921758652,0
5,0.001375,0.000125,0.000125,1.5625e-11,99.57965579,0.08737313343,0
6,0.001625,0.000125,0.000125,1.5625e-11,99.47345757,0.09443894328,0
7,0.001875,0.000125,0.000125,1.5625e-11,99.36152795,0.1006539436,0
8,0.002125,0.000125,0.000125,1.5625e-11,99.24449906,0.1062315369,0
9,0.002375,0.000125,0.000125,1.5625e-11,99.12300298,0.1112870926,0
10,0.002625,0.000125,0.000125,1.5625e-11,98.99754758,0.1158856713,0
11,0.002875,0.000125,0.000125,1.5625e-11,98.86854456,0.1200361584,0
12,0.003125,0.000125,0.000125,1.5625e-11,98.73634657,0.1237406932,0
13,0.003375,0.000125,0.000125,1.5625e-11,98.60131471,0.1270386719,0
14,0.003625,0.000125,0.000125,1.5625e-11,98.46377069,0.1299772932,0
15,0.003875,0.000125,0.000125,1.5625e-11,98.3239768,0.1326068145,0
16,0.004125,0.000125,0.000125,1.5625e-11,98.18218858,0.1349566835,0
17,0.004375,0.000125,0.000125,1.5625e-11,98.03865792,0.1370418512,0
18,0.004625,0.000125,0.000125,1.5625e-11,97.8936182,0.1388740102,0
19,0.004875,0.000125,0.000125,1.5625e-11,97.74727525,0.1404696571,0
20,0.005125,0.000125,0.000125,1.5625e-11,97.59981721,0.1418551186,0
21,0.005375,0.000125,0.000125,1.5625e-11,97.45143341,0.1430481493,0
22,0.005625,0.000125,0.000125,1.5625e-11,97.30229487,0.1440396497,0
23,0.005875,0.000125,0.000125,1.5625e-11,97.15254082,0.1448216001,0
24,0.006125,0.000125,0.000125,1.5625e-11,97.00229908,0.1454017486,0
25,0.006375,0.000125,0.000125,1.5625e-11,96.8516992,0.1457974344,0
26,0.006625,0.000125,0.000125,1.5625e-11,96.70086752,0.1460249258,0
27,0.006875,0.000125,0.000125,1.5625e-11,96.54991983,0.1460971553,0
28,0.007125,0.000125,0.000125,1.5625e-11,96.39896021,0.1460258552,0
29,0.007375,0.000125,0.000125,1.5625e-11,96.2480844,0.1458220766,0
30,0.007625,0.000125,0.000125,1.5625e-11,96.09738664,0.145496467,0
31,0.007875,0.000125,0.000125,1.5625e-11,95.9469601,0.1450599937,0
32,0.008125,0.000125,0.000125,1.5625e-11,95.7968883,0.1445221843,0
33,0.008375,0.000125,0.000125,1.5625e-11,95.64724139,0.1438901347,0
34,0.008625,0.000125,0.000125,1.5625e-11,95.49807808,0.1431737943,0
35,0.008875,0.000125,0.000125,1.5625e-11,95.34945091,0.1423813054,0
36,0.009125,0.000125,0.000125,1.5625e-11,95.20141348,0.1415155725,0
37,0.009375,0.000125,0.000125,1.5625e-11,95.05401617,0.140581083,0
38,0.009625,0.000125,0.000125,1.5625e-11,94.90729836,0.1395828074,0
39,0.009875,0.000125,0.000125,1.5625e-11,94.76129241,0.138525864,0
40,0.010125,0.000125,0.000125,1.5625e-11,94.61603051,0.1374165289,0
41,0.010375,0.000125,0.000125,1.5625e-11,94.47154523,0.1362615929,0
42,0.010625,0.000125,0.000125,1.5625e-11,94.32786685,0.1350672784,0
43,0.010875,0.000125,0.000125,1.5625e-11,94.1850221,0.1338388649,0
44,0.011125,0.000125,0.000125,1.5625e-11,94.0430348,0.1325808897,0
45,0.011375,0.000125,0.000125,1.5625e-11,93.90192629,0.1312974726,0
46,0.011625,0.000125,0.000125,1.5625e-11,93.76171587,0.129991544,0
47,0.011875,0.000125,0.000125,1.5625e-11,93.62242138,0.1286670039,0
48,0.012125,0.000125,0.000125,1.5625e-11,93.48405854,0.1273277554,0
49,0.012375,0.000125,0.000125,1.5625e-11,93.34664101,0.125975109,0
50,0.012625,0.000125,0.000125,1.5625e-11,93.21018253,0.1246098799,0
51,0.012875,0.000125,0.000125,1.5625e-11,93.07469811,0.1232326275,0
52,0.013125,0.000125,0.000125,1.5625e-11,92.94020372,0.1218441254,0
53,0.013375,0.000125,0.000125,1.5625e-11,92.80671501,0.1204459497,0
54,0.013625,0.000125,0.000125,1.5625e-11,92.67424642,0.1190398641,0
55,0.013875,0.000125,0.000125,1.5625e-11,92.54281158,0.1176273272,0
56,0.014125,0.000125,0.000125,1.5625e-11,92.41242414,0.1162094901,0
57,0.014375,0.000125,0.000125,1.5625e-11,92.28309791,0.1147878234,0
58,0.014625,0.000125,0.000125,1.5625e-11,92.15484694,0.1133632751,0
59,0.014875,0.000125,0.000125,1.5625e-11,92.02768697,0.1119352052,0
60,0.015125,0.000125,0.000125,1.5625e-11,91.90163757,0.1105018417,0
61,0.015375,0.000125,0.000125,1.5625e-11,91.77672275,0.1090610185,0
62,0.015625,0.000125,0.000125,1.5625e-11,91.65297069,0.107610286,0
63,0.015875,0.000125,0.000125,1.5625e-11,91.53041399,0.10614676,0
64,0.016125,0.000125,0.000125,1.5625e-11,91.40909066,0.1046670421,0
65,0.016375,0.000125,0.000125,1.5625e-11,91.28904528,0.1031671666,0
66,0.016625,0.000125,0.000125,1.5625e-11,91.17033016,0.1016425177,0
67,0.016875,0.000125,0.000125,1.5625e-11,91.05300669,0.1000877121,0
68,0.017125,0.000125,0.000125,1.5625e-11,90.93714674,0.09849660051,0
69,0.017375,0.000125,0.000125,1.5625e-11,90.82283429,0.096862164,0
70,0.017625,0.000125,0.000125,1.5625e-11,90.71016721,0.0951772855,0
71,0.017875,0.000125,0.000125,1.5625e-11,90.59925903,0.09343427661,0
72,0.018125,0.000125,0.000125,1.5625e-11,90.49024538,0.09161880169,0
73,0.018375,0.000125,0.000125,1.5625e-11,90.38329759,0.08970392542,0
74,0.018625,0.000125,0.000125,1.5625e-11,90.27862168,0.087667098,0
75,0.018875,0.000125,0.000125,1.5625e-11,90.17645263,0.08548626402,0
76,0.019125,0.000125,0.000125,1.5625e-11,90.07706453,0.0831345215,0
77,0.019375,0.000125,0.000125,1.5625e-11,89.98078536,0.08057802502,0
78,0.019625,0.000125,0.000125,1.5625e-11,89.88800889,0.07777460834,0
79,0.019875,0.000125,0.000125,1.5625e-11,89.79920687,0.07467193021,0
80,0.020125,0.000125,0.000125,1.5625e-11,89.71494471,0.07120443418,0
81,0.020375,0.000125,0.000125,1.5625e-11,89.63590102,0.06729021844,0
82,0.020625,0.000125,0.000125,1.5625e-11,89.56289199,0.06282298348,0
83,0.020875,0.000125,0.000125,1.5625e-11,89.49691861,0.05765358333,0
84,0.021125,0.000125,0.000125,1.5625e-11,89.43923908,0.05144481821,0
85,0.021375,0.000125,0.000125,1.5625e-11,89.39139243,0.04471179891,0
86,0.021625,0.000125,0.000125,1.5625e-11,89.35529232,0.03701591612,0
87,0.021875,0.000125,0.000125,1.5625e-11,89.33312658,0.02911147389,0
88,0.022125,0.000125,0.000125,1.5625e-11,89.32791465,0.0178752626,0
89,0.022375,0.000125,0.000125,1.5625e-11,89.34378932,0.004280673109,0
90,0.022625,0.000125,0.000125,1.5625e-11,89.38641694,-0.01594007341,0
91,0.022875,0.000125,0.000125,1.5625e-11,89.46293766,-0.03824079273,0
92,0.023125,0.000125,0.000125,1.5625e-11,89.5822249,-0.06620919052,0
93,0.023375,0.000125,0.000125,1.5625e-11,89.756973,-0.1035066273,0
94,0.023625,0.000125,0.000125,1.5625e-11,90.00632836,-0.1558747977,0
95,0.023875,0.000125,0.000125,1.5625e-11,90.3593993,-0.229306118,0
96,0.024125,0.000125,0.000125,1.5625e-11,90.86469467,-0.3429644895,0
97,0.024375,0.000125,0.000125,1.5625e-11,91.59862373,-0.4979788029,0
98,0.024625,0.000125,0.000125,1.5625e-11,92.72169045,-0.8849776638,0
99,0.024875,0.000125,0.000125,1.5625e-11,94.60768352,-1.055420198,0
100,0.000125,0.000375,0.000125,1.5625e-11,100.0063444,0.03194279849,0
101,0.000375,0.000375,0.000125,1.5625e-11,100.0272928,0.06645995967,0
102,0.000625,0.000375,0.000125,1.5625e-11,100.0468271,0.08338120213,0
103,0.000875,0.000375,0.000125,1.5625e-11,100.0553794,0.09478943958,0
104,0.001125,0.000375,0.000125,1.5625e-11,100.0612544,0.1041377704,0
105,0.001375,0.000375,0.000125,1.5625e-11,100.0660221,0.1117670738,0
106,0.001625,0.000375,0.000125,1.5625e-11,100.0694038,0.118054093,0
107,0.001875,0.000375,0.000125,1.5625e-11,100.0712748,0.1236060052,0
108,0.002125,0.000375,0.000125,1.5625e-11,100.0718605,0.1283948172,0
109,0.002375,0.000375,0.000125,1.5625e-11,100.0712899,0.1326366717,0
110,0.002625,0.000375,0.000125,1.5625e-11,100.069615,0.1363639058,0
111,0.002875,0.000375,0.000125,1.5625e-11,100.0668477,0.1398351068,0
112,0.003125,0.000375,0.000125,1.5625e-11,100.0630595,0.1429611978,0
113,0.003375,0.000375,0.000125,1.5625e-11,100.0583337,0.1456207708,0
114,0.003625,0.000375,0.000125,1.5625e-11,100.0527064,0.1480938519,0
115,0.003875,0.000375,0.000125,1.5625e-11,100.0461367,0.1502868426,0
116,0.004125,0.000375,0.000125,1.5625e-11,100.0385895,0.1521917406,0
117,0.004375,0.000375,0.000125,1.5625e-11,100.0300589,0.1538513375,0
118,0.004625,0.000375,0.000125,1.5625e-11,100.0205571,0.1552924067,0
119,0.004875,0.000375,0.000125,1.5625e-11,100.010092,0.156543276,0
120,0.005125,0.000375,0.000125,1.5625e-11,99.99864001,0.1575819694,0
121,0.005375,0.000375,0.000125,1.5625e-11,99.98618721,0.1584170431,0
122,0.005625,0.000375,0.000125,1.5625e-11,99.97274261,0.1591701928,0
123,0.005875,0.000375,0.000125,1.5625e-11,99.95831829,0.1598616876,0
124,0.006125,0.000375,0.000125,1.5625e-11,99.94292239,0.1604653732,0
125,0.006375,0.000375,0.000125,1.5625e-11,99.92656278,0.1609601786,0
126,0.006625,0.000375,0.000125,1.5625e-11,99.90924785,0.161354583,0
127,0.006875,0.000375,0.000125,1.5625e-11,99.89098608,0.1616584443,0
128,0.007125,0.000375,0.000125,1.5625e-11,99.87178633,0.1618754304,0
129,0.007375,0.000375,0.000125,1.5625e-11,99.85165886,0.161996981,0
130,0.007625,0.000375,0.000125,1.5625e-11,99.83062217,0.1620230867,0
131,0.007875,0.000375,0.000125,1.5625e-11,99.80870132,0.1619729741,0
132,0.008125,0.000375,0.000125,1.5625e-11,99.78591692,0.161865485,0
133,0.008375,0.000375,0.000125,1.5625e-11,99.76228795,0.1617084706,0
134,0.008625,0.000375,0.000125,1.5625e-11,99.73782747,0.161503367,0
135,0.008875,0.000375,0.000125,1.5625e-11,99.71254095,0.1612537503,0
136,0.009125,0.000375,0.000125,1.5625e-11,99.68644491,0.1609734254,0
137,0.009375,0.000375,0.000125,1.5625e-11,99.6595627,0.1606753457,0
138,0.009625,0.000375,0.000125,1.5625e-11,99.6319104,0.1603581046,0
139,0.009875,0.000375,0.000125,1.5625e-11,99.60350152,0.1600134335,0
140,0.010125,0.000375,0.000125,1.5625e-11,99.57435304,0.1596371458,0
141,0.010375,0.000375,0.000125,1.5625e-11,99.54448423,0.1592300934,0
142,0.010625,0.000375,0.000125,1.5625e-11,99.51391415,0.1587947323,0
143,0.010875,0.000375,0.000125,1.5625e-11,99.4826612,0.1583333297,0
144,0.011125,0.000375,0.000125,1.5625e-11,99.45074404,0.1578470897,0
145,0.011375,0.000375,0.000125,1.5625e-11,99.41818056,0.1573395854,0
146,0.011625,0.000375,0.000125,1.5625e-11,99.38499103,0.1568089554,0
147,0.011875,0.000375,0.000125,1.5625e-11,99.35119521,0.1562557821,0
148,0.012125,0.000375,0.000125,1.5625e-11,99.31681146,0.1556861285,0
149,0.012375,0.000375,0.000125,1.5625e-11,99.2818562,0.1550989297,0
150,0.012625,0.000375,0.000125,1.5625e-11,99.24634902,0.1544925781,0
151,0.012875,0.000375,0.000125,1.5625e-11,99.21031242,0.1538651653,0
152,0.013125,0.000375,0.000125,1.5625e-11,99.17377197,0.1532151261,0
153,0.013375,0.000375,0.000125,1.5625e-11,99.13675409,0.1525420594,0
154,0.013625,0.000375,0.000125,1.5625e-11,99.09928391,0.1518453147,0
155,0.013875,0.000375,0.000125,1.5625e-11,99.0613858,0.1511240063,0
156,0.014125,0.000375,0.000125,1.5625e-11,99.02308521,0.1503761894,0
157,0.014375,0.000375,0.000125,1.5625e-11,98.98440806,0.1496005717,0
158,0.014625,0.000375,0.000125,1.5625e-11,98.94537898,0.1487952583,0
159,0.014875,0.000375,0.000125,1.5625e-11,98.90602359,0.1479562739,0
160,0.015125,0.000375,0.000125,1.5625e-11,98.86637203,0.1470786269,0
161,0.015375,0.000375,0.000125,1.5625e-11,98.82645958,0.1461570021,0
162,0.015625,0.000375,0.000125,1.5625e-11,98.78632554,0.1451852229,0
163,0.015875,0.000375,0.000125,1.5625e-11,98.7460132,0.1441557234,0
164,0.016125,0.000375,0.000125,1.5625e-11,98.70557059,0.1430594336,0
165,0.016375,0.000375,0.000125,1.5625e-11,98.66505153,0.1418856521,0
166,0.016625,0.000375,0.000125,1.5625e-11,98.62451662,0.1406218377,0
167,0.016875,0.000375,0.000125,1.5625e-11,98.58403446,0.139252915,0
168,0.017125,0.000375,0.000125,1.5625e-11,98.54368289,0.137761648,0
169,0.017375,0.000375,0.000125,1.5625e-11,98.50355113,0.1361257172,0
170,0.017625,0.000375,0.000125,1.5625e-11,98.46374123,0.1343207493,0
171,0.017875,0.000375,0.000125,1.5625e-11,98.42436267,0.1323214461,0
172,0.018125,0.000375,0.000125,1.5625e-11,98.38553294,0.1300984499,0
173,0.018375,0.000375,0.000125,1.5625e-11,98.34741433,0.127613393,0
174,0.018625,0.000375,0.000125,1.5625e-11,98.31021229,0.1248177233,0
175,0.018875,0.000375,0.000125,1.5625e-11,98.27415112,0.1216514441,0
176,0.019125,0.000375,0.000125,1.5625e-11,98.23948272,0.1180440014,0
177,0.019375,0.000375,0.000125,1.5625e-11,98.20650362,0.1139122083,0
178,0.019625,0.000375,0.000125,1.5625e-11,98.17556729,0.1091561943,0
179,0.019875,0.000375,0.000125,1.5625e-11,98.14709483,0.1036560773,0
180,0.020125,0.000375,0.000125,1.5625e-11,98.1215896,0.09726615859,0
181,0.020375,0.000375,0.000125,1.5625e-11,98.09965526,0.08980696117,0
182,0.020625,0.000375,0.000125,1.5625e-11,98.08201026,0.08106066364,0
183,0.020875,0.000375,0.000125,1.5625e-11,98.06950317,0.07073922677,0
184,0.021125,0.000375,0.000125,1.5625e-11,98.06311893,0.05850062648,0
185,0.021375,0.000375,0.000125,1.5625e-11,98.06405248,0.04378128541,0
186,0.021625,0.000375,0.000125,1.5625e-11,98.07382146,0.02589676802,0
187,0.021875,0.000375,0.000125,1.5625e-11,98.09454259,0.003935529893,0
188,0.022125,0.000375,0.000125,1.5625e-11,98.12883192,-0.02304361227,0
189,0.022375,0.000375,0.000125,1.5625e-11,98.17956364,-0.05636638788,0
190,0.022625,0.000375,0.000125,1.5625e-11,98.2503981,-0.0976521167,0
191,0.022875,0.000375,0.000125,1.5625e-11,98.34597372,-0.1497574298,0
192,0.023125,0.000375,0.000125,1.5625e-11,98.47287766,-0.2167667911,0
193,0.023375,0.000375,0.000125,1.5625e-11,98.63979258,-0.305034383,0
194,0.023625,0.000375,0.000125,1.5625e-11,98.85777532,-0.4244390492,0
195,0.023875,0.000375,0.000125,1.5625e-11,99.14308997,-0.5924810328,0
196,0.024125,0.000375,0.000125,1.5625e-11,99.51305041,-0.8370539669,0
197,0.024375,0.000375,0.000125,1.5625e-11,99.99333136,-1.202129373,0
198,0.024625,0.000375,0.000125,1.5625e-11,100.5567263,-1.79460942,0
199,0.024875,0.000375,0.000125,1.5625e-11,101.1858551,-2.683523418,0
200,0.000125,0.000625,0.000125,1.5625e-11,100.0024401,0.01815421525,0
201,0.000375,0.000625,0.000125,1.5625e-11,100.011806,0.04113033977,0
202,0.000625,0.000625,0.000125,1.5625e-11,100.0250912,0.0565804111,0
203,0.000875,0.000625,0.000125,1.5625e-11,100.03799,0.06941732434,0
204,0.001125,0.000625,0.000125,1.5625e-11,100.0495904,0.08054794679,0
205,0.001375,0.000625,0.000125,1.5625e-11,100.0605653,0.09017817204,0
206,0.001625,0.000625,0.000125,1.5625e-11,100.0709601,0.09846264901,0
207,0.001875,0.000625,0.000125,1.5625e-11,100.0807547,0.1057404494,0
208,0.002125,0.000625,0.000125,1.5625e-11,100.0899368,0.1122071692,0
209,0.002375,0.000625,0.000125,1.5625e-11,100.0987731,0.1181304788,0
210,0.002625,0.000625,0.000125,1.5625e-11,100.1071464,0.1234969792,0
211,0.002875,0.000625,0.000125,1.5625e-11,100.1154232,0.1282886228,0
212,0.003125,0.000625,0.000125,1.5625e-11,100.1238507,0.1326635306,0
213,0.003375,0.000625,0.000125,1.5625e-11,100.1315748,0.13675581,0
214,0.003625,0.000625,0.000125,1.5625e-11,100.1389493,0.140588357,0
215,0.003875,0.000625,0.000125,1.5625e-11,100.1460946,0.1441703039,0
216,0.004125,0.000625,0.000125,1.5625e-11,100.1529992,0.1475147846,0
217,0.004375,0.000625,0.000125,1.5625e-11,100.1596682,0.1506328995,0
218,0.004625,0.000625,0.000125,1.5625e-11,100.1661186,0.15352991,0
219,0.004875,0.000625,0.000125,1.5625e-11,100.1723615,0.1562978071,0
220,0.005125,0.000625,0.000125,1.5625e-11,100.1783072,0.158948049,0
221,0.005375,0.000625,0.000125,1.5625e-11,100.1841017,0.1613931388,0
222,0.005625,0.000625,0.000125,1.5625e-11,100.1897008,0.1636328317,0
223,0.005875,0.000625,0.000125,1.5625e-11,100.1951071,0.1656865447,0
224,0.006125,0.000625,0.000125,1.5625e-11,100.2003335,0.1675735563,0
225,0.006375,0.000625,0.000125,1.5625e-11,100.2053801,0.1693129942,0
226,0.006625,0.000625,0.000125,1.5625e-11,100.2102352,0.1709195646,0
227,0.006875,0.000625,0.000125,1.5625e-11,100.2148793,0.172413028,0
228,0.007125,0.000625,0.000125,1.5625e-11,100.2192898,0.1738290059,0
229,0.007375,0.000625,0.000125,1.5625e-11,100.2234764,0.1751406586,0
230,0.007625,0.000625,0.000125,1.5625e-11,100.2274735,0.1762929544,0
231,0.007875,0.000625,0.000125,1.5625e-11,100.2312954,0.1772997081,0
232,0.008125,0.000625,0.000125,1.5625e-11,100.2349259,0.178194722,0
233,0.008375,0.000625,0.000125,1.5625e-11,100.2383474,0.1789787905,0
234,0.008625,0.000625,0.000125,1.5625e-11,100.2415546,0.1797177599,0
235,0.008875,0.000625,0.000125,1.5625e-11,100.2445527,0.1803737733,0
236,0.009125,0.000625,0.000125,1.5625e-11,100.2473362,0.1808725711,0
237,0.009375,0.000625,0.000125,1.5625e-11,100.2498834,0.1812963518,0
238,0.009625,0.000625,0.000125,1.5625e-11,100.2521718,0.1816785012,0
239,0.009875,0.000625,0.000125,1.5625e-11,100.2541976,0.1820104621,0
240,0.010125,0.000625,0.000125,1.5625e-11,100.2559689,0.182285404,0
241,0.010375,0.000625,0.000125,1.5625e-11,100.2574928,0.1825032167,0
242,0.010625,0.000625,0.000125,1.5625e-11,100.2587718,0.1826670868,0
243,0.010875,0.000625,0.000125,1.5625e-11,100.2598066,0.1827791698,0
244,0.011125,0.000625,0.000125,1.5625e-11,100.2605994,0.1828410735,0
245,0.011375,0.000625,0.000125,1.5625e-11,100.261144,0.1828541229,0
246,0.011625,0.000625,0.000125,1.5625e-11,100.2614755,0.1828216191,0
247,0.011875,0.000625,0.000125,1.5625e-11,100.2615227,0.1827462817,0
248,0.012125,0.000625,0.000125,1.5625e-11,100.2613565,0.1826272688,0
249,0.012375,0.000625,0.000125,1.5625e-11,100.2609546,0.1824622728,0
250,0.012625,0.000625,0.000125,1.5625e-11,100.260317,0.1822421005,0
251,0.012875,0.000625,0.000125,1.5625e-11,100.2594496,0.1819618891,0
252,0.013125,0.000625,0.000125,1.5625e-11,100.2583627,0.1816281376,0
253,0.013375,0.000625,0.000125,1.5625e-11,100.257067,0.1812472584,0
254,0.013625,0.000625,0.000125,1.5625e-11,100.2555711,0.1808195445,0
255,0.013875,0.000625,0.000125,1.5625e-11,100.2538828,0.1803442003,0
256,0.014125,0.000625,0.000125,1.5625e-11,100.2520129,0.1798274539,0
257,0.014375,0.000625,0.000125,1.5625e-11,100.2499725,0.1792724366,0
258,0.014625,0.000625,0.000125,1.5625e-11,100.2477697,0.178668664,0
259,0.014875,0.000625,0.000125,1.5625e-11,100.2454143,0.1780013852,0
260,0.015125,0.000625,0.000125,1.5625e-11,100.2429222,0.1772598969,0
261,0.015375,0.000625,0.000125,1.5625e-11,100.2403137,0.1764361249,0
262,0.015625,0.000625,0.000125,1.5625e-11,100.237612,0.1755210895,0
263,0.015875,0.000625,0.000125,1.5625e-11,100.234844,0.1745036156,0
264,0.016125,0.000625,0.000125,1.5625e-11,100.2320413,0.1733703065,0
265,0.016375,0.000625,0.000125,1.5625e-11,100.2292408,0.1721054393,0
266,0.016625,0.000625,0.000125,1.5625e-11,100.2264854,0.1706906751,0
267,0.016875,0.000625,0.000125,1.5625e-11,100.2238253,0.1691046866,0
268,0.017125,0.000625,0.000125,1.5625e-11,100.2213166,0.1673230943,0
269,0.017375,0.000625,0.000125,1.5625e-11,100.2190279,0.165321754,0
270,0.017625,0.000625,0.000125,1.5625e-11,100.2170424,0.1630733235,0
271,0.017875,0.000625,0.000125,1.5625e-11,100.215458,0.1605638111,0
272,0.018125,0.000625,0.000125,1.5625e-11,100.2143887,0.1577013699,0
273,0.018375,0.000625,0.000125,1.5625e-11,100.2139626,0.1542830583,0
274,0.018625,0.000625,0.000125,1.5625e-11,100.2143294,0.1503478389,0
275,0.018875,0.000625,0.000125,1.5625e-11,100.215669,0.1458219882,0
276,0.019125,0.000625,0.000125,1.5625e-11,100.2181932,0.1405941604,0
277,0.019375,0.000625,0.000125,1.5625e-11,100.2221521,0.1345292173,0
278,0.019625,0.000625,0.000125,1.5625e-11,100.2278435,0.1274645899,0
279,0.019875,0.000625,0.000125,1.5625e-11,100.2356214,0.1192052518,0
280,0.020125,0.000625,0.000125,1.5625e-11,100.2459051,0.1095270565,0
281,0.020375,0.000625,0.000125,1.5625e-11,100.2591951,0.09818162708,0
282,0.020625,0.000625,0.000125,1.5625e-11,100.2760797,0.0848483091,0
283,0.020875,0.000625,0.000125,1.5625e-11,100.297249,0.06909004548,0
284,0.021125,0.000625,0.000125,1.5625e-11,100.3235174,0.05030192538,0
285,0.021375,0.000625,0.000125,1.5625e-11,100.3558702,0.02776545654,0
286,0.021625,0.000625,0.000125,1.5625e-11,100.39559,0.0005853380644,0
287,0.021875,0.000625,0.000125,1.5625e-11,100.4441877,-0.03234275628,0
288,0.022125,0.000625,0.000125,1.5625e-11,100.5035114,-0.07274894214,0
289,0.022375,0.000625,0.000125,1.5625e-11,100.5760162,-0.1231408232,0
290,0.022625,0.000625,0.000125,1.5625e-11,100.6646302,-0.186212422,0
291,0.022875,0.000625,0.000125,1.5625e-11,100.7723041,-0.2654244926,0
292,0.023125,0.000625,0.000125,1.5625e-11,100.903273,-0.3654158849,0
293,0.023375,0.000625,0.000125,1.5625e-11,101.0609885,-0.4929393657,0
294,0.023625,0.000625,0.000125,1.5625e-11,101.2491457,-0.661015046,0
295,0.023875,0.000625,0.000125,1.5625e-11,101.4775875,-0.8855556753,0
296,0.024125,0.000625,0.000125,1.5625e-11,101.7238921,-1.192701131,0
297,0.024375,0.000625,0.000125,1.5625e-11,102.0038257,-1.616508885,0
298,0.024625,0.000625,0.000125,1.5625e-11,102.2484238,-2.221557889,0
299,0.024875,0.000625,0.000125,1.5625e-11,102.4946484,-3.036050852,0
300,0.000125,0.000875,0.000125,1.5625e-11,100.0011177,0.01155493073,0
301,0.000375,0.000875,0.000125,1.5625e-11,100.0065209,0.03229391387,0
302,0.000625,0.000875,0.000125,1.5625e-11,100.0160772,0.04901733442,0
303,0.000875,0.000875,0.000125,1.5625e-11,100.0266031,0.06269570871,0
304,0.001125,0.000875,0.000125,1.5625e-11,100.036812,0.0742037078,0
305,0.001375,0.000875,0.000125,1.5625e-11,100.0469431,0.08405006179,0
306,0.001625,0.000875,0.000125,1.5625e-11,100.0570986,0.09251289439,0
307,0.001875,0.000875,0.000125,1.5625e-11,100.067165,0.09988630997,0
308,0.002125,0.000875,0.000125,1.5625e-11,100.0770503,0.1063792302,0
309,0.002375,0.000875,0.000125,1.5625e-11,100.0867727,0.1121589662,0
310,0.002625,0.000875,0.000125,1.5625e-11,100.0963828,0.117336736,0
311,0.002875,0.000875,0.000125,1.5625e-11,100.105821,0.1219392953,0
312,0.003125,0.000875,0.000125,1.5625e-11,100.1151156,0.1261221009,0
313,0.003375,0.000875,0.000125,1.5625e-11,100.1243365,0.1300352709,0
314,0.003625,0.000875,0.000125,1.5625e-11,100.1335454,0.1336737233,0
315,0.003875,0.000875,0.000125,1.5625e-11,100.1427249,0.1370069965,0
316,0.004125,0.000875,0.000125,1.5625e-11,100.1518441,0.1400408295,0
317,0.004375,0.000875,0.000125,1.5625e-11,100.1608993,0.1428031072,0
318,0.004625,0.000875,0.000125,1.5625e-11,100.1698901,0.1453201507,0
319,0.004875,0.000875,0.000125,1.5625e-11,100.1788237,0.1476233593,0
320,0.005125,0.000875,0.000125,1.5625e-11,100.1877278,0.1497287859,0
321,0.005375,0.000875,0.000125,1.5625e-11,100.1965949,0.1516299333,0
322,0.005625,0.000875,0.000125,1.5625e-11,100.2054202,0.1533536346,0
323,0.005875,0.000875,0.000125,1.5625e-11,100.2141802,0.1549259657,0
324,0.006125,0.000875,0.000125,1.5625e-11,100.2229187,0.1563710224,0
325,0.006375,0.000875,0.000125,1.5625e-11,100.2315881,0.1576905657,0
326,0.006625,0.000875,0.000125,1.5625e-11,100.2402624,0.1589057492,0
327,0.006875,0.000875,0.000125,1.5625e-11,100.2488451,0.1600007444,0
328,0.007125,0.000875,0.000125,1.5625e-11,100.257496,0.1609420402,0
329,0.007375,0.000875,0.000125,1.5625e-11,100.2663237,0.1617536784,0
330,0.007625,0.000875,0.000125,1.5625e-11,100.2749665,0.1624941179,0
331,0.007875,0.000875,0.000125,1.5625e-11,100.283482,0.1631694497,0
332,0.008125,0.000875,0.000125,1.5625e-11,100.291898,0.1637753489,0
333,0.008375,0.000875,0.000125,1.5625e-11,100.3002169,0.1643155491,0
334,0.008625,0.000875,0.000125,1.5625e-11,100.3084025,0.1647772585,0
335,0.008875,0.000875,0.000125,1.5625e-11,100.316556,0.165206319,0
336,0.009125,0.000875,0.000125,1.5625e-11,100.324472,0.1656464996,0
337,0.009375,0.000875,0.000125,1.5625e-11,100.3322892,0.1660461587,0
338,0.009625,0.000875,0.000125,1.5625e-11,100.3400673,0.1663755467,0
339,0.009875,0.000875,0.000125,1.5625e-11,100.3477866,0.1666388889,0
340,0.010125,0.000875,0.000125,1.5625e-11,100.3554473,0.1668443017,0
341,0.010375,0.000875,0.000125,1.5625e-11,100.3630494,0.1669984747,0
342,0.010625,0.000875,0.000125,1.5625e-11,100.3705894,0.1671065116,0
343,0.010875,0.000875,0.000125,1.5625e-11,100.3780665,0.1671714462,0
344,0.011125,0.000875,0.000125,1.5625e-11,100.3854784,0.1671958836,0
345,0.011375,0.000875,0.000125,1.5625e-11,100.3928231,0.1671817498,0
346,0.011625,0.000875,0.000125,1.5625e-11,100.4000999,0.1671336467,0
347,0.011875,0.000875,0.000125,1.5625e-11,100.4073106,0.1670568712,0
348,0.012125,0.000875,0.000125,1.5625e-11,100.414449,0.1669483995,0
349,0.012375,0.000875,0.000125,1.5625e-11,100.4215076,0.1668279653,0
350,0.012625,0.000875,0.000125,1.5625e-11,100.4284776,0.1666990551,0
351,0.012875,0.000875,0.000125,1.5625e-11,100.4353875,0.1665090313,0
352,0.013125,0.000875,0.000125,1.5625e-11,100.4422595,0.1662503489,0
353,0.013375,0.000875,0.000125,1.5625e-11,100.4490941,0.1659335888,0
354,0.013625,0.000875,0.000125,1.5625e-11,100.4558897,0.1655663365,0
355,0.013875,0.000875,0.000125,1.5625e-11,100.4626514,0.1651330302,0
356,0.014125,0.000875,0.000125,1.5625e-11,100.4693963,0.1646127363,0
357,0.014375,0.000875,0.000125,1.5625e-11,100.4761114,0.1640519398,0
358,0.014625,0.000875,0.000125,1.5625e-11,100.4827846,0.1634600212,0
359,0.014875,0.000875,0.000125,1.5625e-11,100.4894243,0.1628163177,0
360,0.015125,0.000875,0.000125,1.5625e-11,100.4960532,0.1621001076,0
361,0.015375,0.000875,0.000125,1.5625e-11,100.5026947,0.1612957761,0
362,0.015625,0.000875,0.000125,1.5625e-11,100.509371,0.1603883873,0
363,0.015875,0.000875,0.000125,1.5625e-11,100.5161058,0.1593612086,0
364,0.016125,0.000875,0.000125,1.5625e-11,100.5229263,0.158195177,0
365,0.016375,0.000875,0.000125,1.5625e-11,100.5298644,0.1568684483,0
366,0.016625,0.000875,0.000125,1.5625e-11,100.5369567,0.1553559852,0
367,0.016875,0.000875,0.000125,1.5625e-11,100.5442461,0.1536272313,0
368,0.017125,0.000875,0.000125,1.5625e-11,100.5517795,0.1516561786,0
369,0.017375,0.000875,0.000125,1.5625e-11,100.559614,0.1493684543,0
370,0.017625,0.000875,0.000125,1.5625e-11,100.5678223,0.1467264114,0
371,0.017875,0.000875,0.000125,1.5625e-11,100.5764938,0.1436806625,0
372,0.018125,0.000875,0.000125,1.5625e-11,100.5857398,0.1401669865,0
373,0.018375,0.000875,0.000125,1.5625e-11,100.5956666,0.1361063076,0
374,0.018625,0.000875,0.000125,1.5625e-11,100.6063844,0.1313999689,0
375,0.018875,0.000875,0.000125,1.5625e-11,100.6180398,0.1259276772,0
376,0.019125,0.000875,0.000125,1.5625e-11,100.630815,0.1195467069,0
377,0.019375,0.000875,0.000125,1.5625e-11,100.6449232,0.1120859903,0
378,0.019625,0.000875,0.000125,1.5625e-11,100.6606165,0.1033335566,0
379,0.019875,0.000875,0.000125,1.5625e-11,100.678211,0.09302542194,0
380,0.020125,0.000875,0.000125,1.5625e-11,100.6981005,0.08077371723,0
381,0.020375,0.000875,0.000125,1.5625e-11,100.720755,0.0662352404,0
382,0.020625,0.000875,0.000125,1.5625e-11,100.7465627,0.04907085597,0
383,0.020875,0.000875,0.000125,1.5625e-11,100.7760574,0.02885884654,0
384,0.021125,0.000875,0.000125,1.5625e-11,100.8097233,0.005018179971,0
385,0.021375,0.000875,0.000125,1.5625e-11,100.8484768,-0.02351062449,0
386,0.021625,0.000875,0.000125,1.5625e-11,100.8933502,-0.05789566852,0
387,0.021875,0.000875,0.000125,1.5625e-11,100.9453556,-0.09954968975,0
388,0.022125,0.000875,0.000125,1.5625e-11,101.0058864,-0.1501779977,0
389,0.022375,0.000875,0.000125,1.5625e-11,101.0753477,-0.2116091129,0
390,0.022625,0.000875,0.000125,1.5625e-11,101.1515112,-0.2872018873,0
391,0.022875,0.000875,0.000125,1.5625e-11,101.2422517,-0.3810471636,0
392,0.023125,0.000875,0.000125,1.5625e-11,101.3398833,-0.4991107568,0
393,0.023375,0.000875,0.000125,1.5625e-11,101.4602898,-0.6492891481,0
394,0.023625,0.000875,0.000125,1.5625e-11,101.5956982,-0.8413621808,0
395,0.023875,0.000875,0.000125,1.5625e-11,101.7438603,-1.087481333,0
396,0.024125,0.000875,0.000125,1.5625e-11,101.9006266,-1.406235772,0
397,0.024375,0.000875,0.000125,1.5625e-11,102.0478027,-1.817914026,0
398,0.024625,0.000875,0.000125,1.5625e-11,102.1708977,-2.355535393,0
399,0.024875,0.000875,0.000125,1.5625e-11,102.1901193,-3.025515303,0
400,0.000125,0.001125,0.000125,1.5625e-11,100.0006662,0.008892190888,0
401,0.000375,0.001125,0.000125,1.5625e-11,100.0039715,0.02595346798,0
402,0.000625,0.001125,0.000125,1.5625e-11,100.0105366,0.0405860161,0
403,0.000875,0.001125,0.000125,1.5625e-11,100.0186276,0.05292056639,0
404,0.001125,0.001125,0.000125,1.5625e-11,100.0271963,0.0635874078,0
405,0.001375,0.001125,0.000125,1.5625e-11,100.0361117,0.07298629864,0
406,0.001625,0.001125,0.000125,1.5625e-11,100.0453557,0.08128463631,0
407,0.001875,0.001125,0.000125,1.5625e-11,100.0547899,0.0886357078,0
408,0.002125,0.001125,0.000125,1.5625e-11,100.0642928,0.09518699337,0
409,0.002375,0.001125,0.000125,1.5625e-11,100.0738211,0.1010677073,0
410,0.002625,0.001125,0.000125,1.5625e-11,100.0833735,0.1063734896,0
411,0.002875,0.001125,0.000125,1.5625e-11,100.0929237,0.1111711499,0
412,0.003125,0.001125,0.000125,1.5625e-11,100.1024461,0.1155514597,0
413,0.003375,0.001125,0.000125,1.5625e-11,100.1119569,0.1195940227,0
414,0.003625,0.001125,0.000125,1.5625e-11,100.1214921,0.1233260367,0
415,0.003875,0.001125,0.000125,1.5625e-11,100.1310642,0.1267607291,0
416,0.004125,0.001125,0.000125,1.5625e-11,100.1406642,0.1299208242,0
417,0.004375,0.001125,0.000125,1.5625e-11,100.1502824,0.1328337368,0
418,0.004625,0.001125,0.000125,1.5625e-11,100.1599149,0.1355247129,0
419,0.004875,0.001125,0.000125,1.5625e-11,100.1695589,0.1380181891,0
420,0.005125,0.001125,0.000125,1.5625e-11,100.1792245,0.1403303595,0
421,0.005375,0.001125,0.000125,1.5625e-11,100.1889062,0.1424648253,0
422,0.005625,0.001125,0.000125,1.5625e-11,100.1985969,0.1444342703,0
423,0.005875,0.001125,0.000125,1.5625e-11,100.2082826,0.1462507965,0
424,0.006125,0.001125,0.000125,1.5625e-11,100.2179699,0.1479269865,0
425,0.006375,0.001125,0.000125,1.5625e-11,100.2276532,0.1494682332,0
426,0.006625,0.001125,0.000125,1.5625e-11,100.2373384,0.1508837331,0
427,0.006875,0.001125,0.000125,1.5625e-11,100.2470258,0.1521748069,0
428,0.007125,0.001125,0.000125,1.5625e-11,100.2566887,0.1533246118,0
429,0.007375,0.001125,0.000125,1.5625e-11,100.2663182,0.1543674743,0
430,0.007625,0.001125,0.000125,1.5625e-11,100.2759352,0.1553596814,0
431,0.007875,0.001125,0.000125,1.5625e-11,100.2855639,0.1562955282,0
432,0.008125,0.001125,0.000125,1.5625e-11,100.2951943,0.1571550354,0
433,0.008375,0.001125,0.000125,1.5625e-11,100.304809,0.1579348557,0
434,0.008625,0.001125,0.000125,1.5625e-11,100.3143882,0.1586399482,0