cellI,x,y,z,S,Ux,Uy,Uz
0,0.000125,0,0.000125,6.25e-08,0,0,0
1,0.000375,0,0.000125,6.25e-08,0,0,0
2,0.000625,0,0.000125,6.25e-08,0,0,0
3,0.000875,0,0.000125,6.25e-08,0,0,0
4,0.001125,0,0.000125,6.25e-08,0,0,0
5,0.001375,0,0.000125,6.25e-08,0,0,0
6,0.001625,0,0.000125,6.25e-08,0,0,0
7,0.001875,0,0.000125,6.25e-08,0,0,0
8,0.002125,0,0.000125,6.25e-08,0,0,0
9,0.002375,0,0.000125,6.25e-08,0,0,0
10,0.002625,0,0.000125,6.25e-08,0,0,0
11,0.002875,0,0.000125,6.25e-08,0,0,0
12,0.003125,0,0.000125,6.25e-08,0,0,0
13,0.003375,0,0.000125,6.25e-08,0,0,0
14,0.003625,0,0.000125,6.25e-08,0,0,0
15,0.003875,0,0.000125,6.25e-08,0,0,0
16,0.004125,0,0.000125,6.25e-08,0,0,0
17,0.004375,0,0.000125,6.25e-08,0,0,0
18,0.004625,0,0.000125,6.25e-08,0,0,0
19,0.004875,0,0.000125,6.25e-08,0,0,0
20,0.005125,0,0.000125,6.25e-08,0,0,0
21,0.005375,0,0.000125,6.25e-08,0,0,0
22,0.005625,0,0.000125,6.25e-08,0,0,0
23,0.005875,0,0.000125,6.25e-08,0,0,0
24,0.006125,0,0.000125,6.25e-08,0,0,0
25,0.006375,0,0.000125,6.25e-08,0,0,0
26,0.006625,0,0.000125,6.25e-08,0,0,0
27,0.006875,0,0.000125,6.25e-08,0,0,0
28,0.007125,0,0.000125,6.25e-08,0,0,0
29,0.007375,0,0.000125,6.25e-08,0,0,0
30,0.007625,0,0.000125,6.25e-08,0,0,0
31,0.007875,0,0.000125,6.25e-08,0,0,0
32,0.008125,0,0.000125,6.25e-08,0,0,0
33,0.008375,0,0.000125,6.25e-08,0,0,0
34,0.008625,0,0.000125,6.25e-08,0,0,0
35,0.008875,0,0.000125,6.25e-08,0,0,0
36,0.009125,0,0.000125,6.25e-08,0,0,0
37,0.009375,0,0.000125,6.25e-08,0,0,0
38,0.009625,0,0.000125,6.25e-08,0,0,0
39,0.009875,0,0.000125,6.25e-08,0,0,0
40,0.010125,0,0.000125,6.25e-08,0,0,0
41,0.010375,0,0.000125,6.25e-08,0,0,0
42,0.010625,0,0.000125,6.25e-08,0,0,0
43,0.010875,0,0.000125,6.25e-08,0,0,0
44,0.011125,0,0.000125,6.25e-08,0,0,0
45,0.011375,0,0.000125,6.25e-08,0,0,0
46,0.011625,0,0.000125,6.25e-08,0,0,0
47,0.011875,0,0.000125,6.25e-08,0,0,0
48,0.012125,0,0.000125,6.25e-08,0,0,0
49,0.012375,0,0.000125,6.25e-08,0,0,0
50,0.012625,0,0.000125,6.25e-08,0,0,0
51,0.012875,0,0.000125,6.25e-08,0,0,0
52,0.013125,0,0.000125,6.25e-08,0,0,0
53,0.013375,0,0.000125,6.25e-08,0,0,0
54,0.013625,0,0.000125,6.25e-08,0,0,0
55,0.013875,0,0.000125,6.25e-08,0,0,0
56,0.014125,0,0.000125,6.25e-08,0,0,0
57,0.014375,0,0.000125,6.25e-08,0,0,0
58,0.014625,0,0.000125,6.25e-08,0,0,0
59,0.014875,0,0.000125,6.25e-08,0,0,0
60,0.015125,0,0.000125,6.25e-08,0,0,0
61,0.015375,0,0.000125,6.25e-08,0,0,0
62,0.015625,0,0.000125,6.25e-08,0,0,0
63,0.015875,0,0.000125,6.25e-08,0,0,0
64,0.016125,0,0.000125,6.25e-08,0,0,0
65,0.016375,0,0.000125,6.25e-08,0,0,0
66,0.016625,0,0.000125,6.25e-08,0,0,0
67,0.016875,0,0.000125,6.25e-08,0,0,0
68,0.017125,0,0.000125,6.25e-08,0,0,0
69,0.017375,0,0.000125,6.25e-08,0,0,0
70,0.017625,0,0.000125,6.25e-08,0,0,0
71,0.017875,0,0.000125,6.25e-08,0,0,0
72,0.018125,0,0.000125,6.25e-08,0,0,0
73,0.018375,0,0.000125,6.25e-08,0,0,0
74,0.018625,0,0.000125,6.25e-08,0,0,0
75,0.018875,0,0.000125,6.25e-08,0,0,0
76,0.019125,0,0.000125,6.25e-08,0,0,0
77,0.019375,0,0.000125,6.25e-08,0,0,0
78,0.019625,0,0.000125,6.25e-08,0,0,0
79,0.019875,0,0.000125,6.25e-08,0,0,0
80,0.020125,0,0.000125,6.25e-08,0,0,0
81,0.020375,0,0.000125,6.25e-08,0,0,0
82,0.020625,0,0.000125,6.25e-08,0,0,0
83,0.020875,0,0.000125,6.25e-08,0,0,0
84,0.021125,0,0.000125,6.25e-08,0,0,0
85,0.021375,0,0.000125,6.25e-08,0,0,0
86,0.021625,0,0.000125,6.25e-08,0,0,0
87,0.021875,0,0.000125,6.25e-08,0,0,0
88,0.022125,0,0.000125,6.25e-08,0,0,0
89,0.022375,0,0.000125,6.25e-08,0,0,0
90,0.022625,0,0.000125,6.25e-08,0,0,0
91,0.022875,0,0.000125,6.25e-08,0,0,0
92,0.023125,0,0.000125,6.25e-08,0,0,0
93,0.023375,0,0.000125,6.25e-08,0,0,0
94,0.023625,0,0.000125,6.25e-08,0,0,0
95,0.023875,0,0.000125,6.25e-08,0,0,0
96,0.024125,0,0.000125,6.25e-08,0,0,0
97,0.024375,0,0.000125,6.25e-08,0,0,0
98,0.024625,0,0.000125,6.25e-08,0,0,0
99,0.024875,0,0.000125,6.25e-08,0,0,0
21600,0.125125,0,0.000125,6.25e-08,0,0,0
21601,0.125375,0,0.000125,6.25e-08,0,0,0
21602,0.125625,0,0.000125,6.25e-08,0,0,0
21603,0.125875,0,0.000125,6.25e-08,0,0,0
21604,0.126125,0,0.000125,6.25e-08,0,0,0
21605,0.126375,0,0.000125,6.25e-08,0,0,0
21606,0.126625,0,0.000125,6.25e-08,0,0,0
21607,0.126875,0,0.000125,6.25e-08,0,0,0
21608,0.127125,0,0.000125,6.25e-08,0,0,0
21609,0.127375,0,0.000125,6.25e-08,0,0,0
21610,0.127625,0,0.000125,6.25e-08,0,0,0
21611,0.127875,0,0.000125,6.25e-08,0,0,0
21612,0.128125,0,0.000125,6.25e-08,0,0,0
21613,0.128375,0,0.000125,6.25e-08,0,0,0
21614,0.128625,0,0.000125,6.25e-08,0,0,0
21615,0.128875,0,0.000125,6.25e-08,0,0,0
21616,0.129125,0,0.000125,6.25e-08,0,0,0
21617,0.129375,0,0.000125,6.25e-08,0,0,0
21618,0.129625,0,0.000125,6.25e-08,0,0,0
21619,0.129875,0,0.000125,6.25e-08,0,0,0
21620,0.130125,0,0.000125,6.25e-08,0,0,0
21621,0.130375,0,0.000125,6.25e-08,0,0,0
21622,0.130625,0,0.000125,6.25e-08,0,0,0
21623,0.130875,0,0.000125,6.25e-08,0,0,0
21624,0.131125,0,0.000125,6.25e-08,0,0,0
21625,0.131375,0,0.000125,6.25e-08,0,0,0
21626,0.131625,0,0.000125,6.25e-08,0,0,0
21627,0.131875,0,0.000125,6.25e-08,0,0,0
21628,0.132125,0,0.000125,6.25e-08,0,0,0
21629,0.132375,0,0.000125,6.25e-08,0,0,0
21630,0.132625,0,0.000125,6.25e-08,0,0,0
21631,0.132875,0,0.000125,6.25e-08,0,0,0
21632,0.133125,0,0.000125,6.25e-08,0,0,0
21633,0.133375,0,0.000125,6.25e-08,0,0,0
21634,0.133625,0,0.000125,6.25e-08,0,0,0
21635,0.133875,0,0.000125,6.25e-08,0,0,0
21636,0.134125,0,0.000125,6.25e-08,0,0,0
21637,0.134375,0,0.000125,6.25e-08,0,0,0
21638,0.134625,0,0.000125,6.25e-08,0,0,0
21639,0.134875,0,0.000125,6.25e-08,0,0,0
21640,0.135125,0,0.000125,6.25e-08,0,0,0
21641,0.135375,0,0.000125,6.25e-08,0,0,0
21642,0.135625,0,0.000125,6.25e-08,0,0,0
21643,0.135875,0,0.000125,6.25e-08,0,0,0
21644,0.136125,0,0.000125,6.25e-08,0,0,0
21645,0.136375,0,0.000125,6.25e-08,0,0,0
21646,0.136625,0,0.000125,6.25e-08,0,0,0
21647,0.136875,0,0.000125,6.25e-08,0,0,0
21648,0.137125,0,0.000125,6.25e-08,0,0,0
21649,0.137375,0,0.000125,6.25e-08,0,0,0
21650,0.137625,0,0.000125,6.25e-08,0,0,0
21651,0.137875,0,0.000125,6.25e-08,0,0,0
21652,0.138125,0,0.000125,6.25e-08,0,0,0
21653,0.138375,0,0.000125,6.25e-08,0,0,0
21654,0.138625,0,0.000125,6.25e-08,0,0,0
21655,0.138875,0,0.000125,6.25e-08,0,0,0
21656,0.139125,0,0.000125,6.25e-08,0,0,0
21657,0.139375,0,0.000125,6.25e-08,0,0,0
21658,0.139625,0,0.000125,6.25e-08,0,0,0
21659,0.139875,0,0.000125,6.25e-08,0,0,0
21660,0.140125,0,0.000125,6.25e-08,0,0,0
21661,0.140375,0,0.000125,6.25e-08,0,0,0
21662,0.140625,0,0.000125,6.25e-08,0,0,0
21663,0.140875,0,0.000125,6.25e-08,0,0,0
21664,0.141125,0,0.000125,6.25e-08,0,0,0
21665,0.141375,0,0.000125,6.25e-08,0,0,0
21666,0.141625,0,0.000125,6.25e-08,0,0,0
21667,0.141875,0,0.000125,6.25e-08,0,0,0
21668,0.142125,0,0.000125,6.25e-08,0,0,0
21669,0.142375,0,0.000125,6.25e-08,0,0,0
21670,0.142625,0,0.000125,6.25e-08,0,0,0
21671,0.142875,0,0.000125,6.25e-08,0,0,0
21672,0.143125,0,0.000125,6.25e-08,0,0,0
21673,0.143375,0,0.000125,6.25e-08,0,0,0
21674,0.143625,0,0.000125,6.25e-08,0,0,0
21675,0.143875,0,0.000125,6.25e-08,0,0,0
21676,0.144125,0,0.000125,6.25e-08,0,0,0
21677,0.144375,0,0.000125,6.25e-08,0,0,0
21678,0.144625,0,0.000125,6.25e-08,0,0,0
21679,0.144875,0,0.000125,6.25e-08,0,0,0
21680,0.145125,0,0.000125,6.25e-08,0,0,0
21681,0.145375,0,0.000125,6.25e-08,0,0,0
21682,0.145625,0,0.000125,6.25e-08,0,0,0
21683,0.145875,0,0.000125,6.25e-08,0,0,0
21684,0.146125,0,0.000125,6.25e-08,0,0,0
21685,0.146375,0,0.000125,6.25e-08,0,0,0
21686,0.146625,0,0.000125,6.25e-08,0,0,0
21687,0.146875,0,0.000125,6.25e-08,0,0,0
21688,0.147125,0,0.000125,6.25e-08,0,0,0
21689,0.147375,0,0.000125,6.25e-08,0,0,0
21690,0.147625,0,0.000125,6.25e-08,0,0,0
21691,0.147875,0,0.000125,6.25e-08,0,0,0
21692,0.148125,0,0.000125,6.25e-08,0,0,0
21693,0.148375,0,0.000125,6.25e-08,0,0,0
21694,0.148625,0,0.000125,6.25e-08,0,0,0
21695,0.148875,0,0.000125,6.25e-08,0,0,0
21696,0.149125,0,0.000125,6.25e-08,0,0,0
21697,0.149375,0,0.000125,6.25e-08,0,0,0
21698,0.149625,0,0.000125,6.25e-08,0,0,0
21699,0.149875,0,0.000125,6.25e-08,0,0,0
3900,0.000125,0.01,0.000125,6.25e-08,0,0,0
3901,0.000375,0.01,0.000125,6.25e-08,0,0,0
3902,0.000625,0.01,0.000125,6.25e-08,0,0,0
3903,0.000875,0.01,0.000125,6.25e-08,0,0,0
3904,0.001125,0.01,0.000125,6.25e-08,0,0,0
3905,0.001375,0.01,0.000125,6.25e-08,0,0,0
3906,0.001625,0.01,0.000125,6.25e-08,0,0,0
3907,0.001875,0.01,0.000125,6.25e-08,0,0,0
3908,0.002125,0.01,0.000125,6.25e-08,0,0,0
3909,0.002375,0.01,0.000125,6.25e-08,0,0,0
3910,0.002625,0.01,0.000125,6.25e-08,0,0,0
3911,0.002875,0.01,0.000125,6.25e-08,0,0,0
3912,0.003125,0.01,0.000125,6.25e-08,0,0,0
3913,0.003375,0.01,0.000125,6.25e-08,0,0,0
3914,0.003625,0.01,0.000125,6.25e-08,0,0,0
3915,0.003875,0.01,0.000125,6.25e-08,0,0,0
3916,0.004125,0.01,0.000125,6.25e-08,0,0,0
3917,0.004375,0.01,0.000125,6.25e-08,0,0,0
3918,0.004625,0.01,0.000125,6.25e-08,0,0,0
3919,0.004875,0.01,0.000125,6.25e-08,0,0,0
3920,0.005125,0.01,0.000125,6.25e-08,0,0,0
3921,0.005375,0.01,0.000125,6.25e-08,0,0,0
3922,0.005625,0.01,0.000125,6.25e-08,0,0,0
3923,0.005875,0.01,0.000125,6.25e-08,0,0,0
3924,0.006125,0.01,0.000125,6.25e-08,0,0,0
3925,0.006375,0.01,0.000125,6.25e-08,0,0,0
3926,0.006625,0.01,0.000125,6.25e-08,0,0,0
3927,0.006875,0.01,0.000125,6.25e-08,0,0,0
3928,0.007125,0.01,0.000125,6.25e-08,0,0,0
3929,0.007375,0.01,0.000125,6.25e-08,0,0,0
3930,0.007625,0.01,0.000125,6.25e-08,0,0,0
3931,0.007875,0.01,0.000125,6.25e-08,0,0,0
3932,0.008125,0.01,0.000125,6.25e-08,0,0,0
3933,0.008375,0.01,0.000125,6.25e-08,0,0,0
3934,0.008625,0.01,0.000125,6.25e-08,0,0,0
3935,0.008875,0.01,0.000125,6.25e-08,0,0,0
3936,0.009125,0.01,0.000125,6.25e-08,0,0,0
3937,0.009375,0.01,0.000125,6.25e-08,0,0,0
3938,0.009625,0.01,0.000125,6.25e-08,0,0,0
3939,0.009875,0.01,0.000125,6.25e-08,0,0,0
3940,0.010125,0.01,0.000125,6.25e-08,0,0,0
3941,0.010375,0.01,0.000125,6.25e-08,0,0,0
3942,0.010625,0.01,0.000125,6.25e-08,0,0,0
3943,0.010875,0.01,0.000125,6.25e-08,0,0,0
3944,0.011125,0.01,0.000125,6.25e-08,0,0,0
3945,0.011375,0.01,0.000125,6.25e-08,0,0,0
3946,0.011625,0.01,0.000125,6.25e-08,0,0,0
3947,0.011875,0.01,0.000125,6.25e-08,0,0,0
3948,0.012125,0.01,0.000125,6.25e-08,0,0,0
3949,0.012375,0.01,0.000125,6.25e-08,0,0,0
3950,0.012625,0.01,0.000125,6.25e-08,0,0,0
3951,0.012875,0.01,0.000125,6.25e-08,0,0,0
3952,0.013125,0.01,0.000125,6.25e-08,0,0,0
3953,0.013375,0.01,0.000125,6.25e-08,0,0,0
3954,0.013625,0.01,0.000125,6.25e-08,0,0,0
3955,0.013875,0.01,0.000125,6.25e-08,0,0,0
3956,0.014125,0.01,0.000125,6.25e-08,0,0,0
3957,0.014375,0.01,0.000125,6.25e-08,0,0,0
3958,0.014625,0.01,0.000125,6.25e-08,0,0,0
3959,0.014875,0.01,0.000125,6.25e-08,0,0,0
3960,0.015125,0.01,0.000125,6.25e-08,0,0,0
3961,0.015375,0.01,0.000125,6.25e-08,0,0,0
3962,0.015625,0.01,0.000125,6.25e-08,0,0,0
3963,0.015875,0.01,0.000125,6.25e-08,0,0,0
3964,0.016125,0.01,0.000125,6.25e-08,0,0,0
3965,0.016375,0.01,0.000125,6.25e-08,0,0,0
3966,0.016625,0.01,0.000125,6.25e-08,0,0,0
3967,0.016875,0.01,0.000125,6.25e-08,0,0,0
3968,0.017125,0.01,0.000125,6.25e-08,0,0,0
3969,0.017375,0.01,0.000125,6.25e-08,0,0,0
3970,0.017625,0.01,0.000125,6.25e-08,0,0,0
3971,0.017875,0.01,0.000125,6.25e-08,0,0,0
3972,0.018125,0.01,0.000125,6.25e-08,0,0,0
3973,0.018375,0.01,0.000125,6.25e-08,0,0,0
3974,0.018625,0.01,0.000125,6.25e-08,0,0,0
3975,0.018875,0.01,0.000125,6.25e-08,0,0,0
3976,0.019125,0.01,0.000125,6.25e-08,0,0,0
3977,0.019375,0.01,0.000125,6.25e-08,0,0,0
3978,0.019625,0.01,0.000125,6.25e-08,0,0,0
3979,0.019875,0.01,0.000125,6.25e-08,0,0,0
3980,0.020125,0.01,0.000125,6.25e-08,0,0,0
3981,0.020375,0.01,0.000125,6.25e-08,0,0,0
3982,0.020625,0.01,0.000125,6.25e-08,0,0,0
3983,0.020875,0.01,0.000125,6.25e-08,0,0,0
3984,0.021125,0.01,0.000125,6.25e-08,0,0,0
3985,0.021375,0.01,0.000125,6.25e-08,0,0,0
3986,0.021625,0.01,0.000125,6.25e-08,0,0,0
3987,0.021875,0.01,0.000125,6.25e-08,0,0,0
3988,0.022125,0.01,0.000125,6.25e-08,0,0,0
3989,0.022375,0.01,0.000125,6.25e-08,0,0,0
3990,0.022625,0.01,0.000125,6.25e-08,0,0,0
3991,0.022875,0.01,0.000125,6.25e-08,0,0,0
3992,0.023125,0.01,0.000125,6.25e-08,0,0,0
3993,0.023375,0.01,0.000125,6.25e-08,0,0,0
3994,0.023625,0.01,0.000125,6.25e-08,0,0,0
3995,0.023875,0.01,0.000125,6.25e-08,0,0,0
3996,0.024125,0.01,0.000125,6.25e-08,0,0,0
3997,0.024375,0.01,0.000125,6.25e-08,0,0,0
3998,0.024625,0.01,0.000125,6.25e-08,0,0,0
3999,0.024875,0.01,0.000125,6.25e-08,0,0,0
20000,0.025,0.01011211771,0.000125,5.60588575e-08,0,0,0
20400,0.025,0.01033635315,0.000125,5.605886e-08,0,0,0
20400,0.025125,0.01044847087,0.000125,6.25e-08,0,0,0
20401,0.025375,0.01044847087,0.000125,6.25e-08,0,0,0
20402,0.025625,0.01044847087,0.000125,6.25e-08,0,0,0
20403,0.025875,0.01044847087,0.000125,6.25e-08,0,0,0
20404,0.026125,0.01044847087,0.000125,6.25e-08,0,0,0
20405,0.026375,0.01044847087,0.000125,6.25e-08,0,0,0
20406,0.026625,0.01044847087,0.000125,6.25e-08,0,0,0
20407,0.026875,0.01044847087,0.000125,6.25e-08,0,0,0
20408,0.027125,0.01044847087,0.000125,6.25e-08,0,0,0
20409,0.027375,0.01044847087,0.000125,6.25e-08,0,0,0
20410,0.027625,0.01044847087,0.000125,6.25e-08,0,0,0
20411,0.027875,0.01044847087,0.000125,6.25e-08,0,0,0
20412,0.028125,0.01044847087,0.000125,6.25e-08,0,0,0
20413,0.028375,0.01044847087,0.000125,6.25e-08,0,0,0
20414,0.028625,0.01044847087,0.000125,6.25e-08,0,0,0
20415,0.028875,0.01044847087,0.000125,6.25e-08,0,0,0
20416,0.029125,0.01044847087,0.000125,6.25e-08,0,0,0
20417,0.029375,0.01044847087,0.000125,6.25e-08,0,0,0
20418,0.029625,0.01044847087,0.000125,6.25e-08,0,0,0
20419,0.029875,0.01044847087,0.000125,6.25e-08,0,0,0
20420,0.030125,0.01044847087,0.000125,6.25e-08,0,0,0
20421,0.030375,0.01044847087,0.000125,6.25e-08,0,0,0
20422,0.030625,0.01044847087,0.000125,6.25e-08,0,0,0
20423,0.030875,0.01044847087,0.000125,6.25e-08,0,0,0
20424,0.031125,0.01044847087,0.000125,6.25e-08,0,0,0
20425,0.031375,0.01044847087,0.000125,6.25e-08,0,0,0
20426,0.031625,0.01044847087,0.000125,6.25e-08,0,0,0
20427,0.031875,0.01044847087,0.000125,6.25e-08,0,0,0
20428,0.032125,0.01044847087,0.000125,6.25e-08,0,0,0
20429,0.032375,0.01044847087,0.000125,6.25e-08,0,0,0
20430,0.032625,0.01044847087,0.000125,6.25e-08,0,0,0
20431,0.032875,0.01044847087,0.000125,6.25e-08,0,0,0
20432,0.033125,0.01044847087,0.000125,6.25e-08,0,0,0
20433,0.033375,0.01044847087,0.000125,6.25e-08,0,0,0
20434,0.033625,0.01044847087,0.000125,6.25e-08,0,0,0
20435,0.033875,0.01044847087,0.000125,6.25e-08,0,0,0
20436,0.034125,0.01044847087,0.000125,6.25e-08,0,0,0
20437,0.034375,0.01044847087,0.000125,6.25e-08,0,0,0
20438,0.034625,0.01044847087,0.000125,6.25e-08,0,0,0
20439,0.034875,0.01044847087,0.000125,6.25e-08,0,0,0
20440,0.035125,0.01044847087,0.000125,6.25e-08,0,0,0
20441,0.035375,0.01044847087,0.000125,6.25e-08,0,0,0
20442,0.035625,0.01044847087,0.000125,6.25e-08,0,0,0
20443,0.035875,0.01044847087,0.000125,6.25e-08,0,0,0
20444,0.036125,0.01044847087,0.000125,6.25e-08,0,0,0
20445,0.036375,0.01044847087,0.000125,6.25e-08,0,0,0
20446,0.036625,0.01044847087,0.000125,6.25e-08,0,0,0
20447,0.036875,0.01044847087,0.000125,6.25e-08,0,0,0
20448,0.037125,0.01044847087,0.000125,6.25e-08,0,0,0
20449,0.037375,0.01044847087,0.000125,6.25e-08,0,0,0
20450,0.037625,0.01044847087,0.000125,6.25e-08,0,0,0
20451,0.037875,0.01044847087,0.000125,6.25e-08,0,0,0
20452,0.038125,0.01044847087,0.000125,6.25e-08,0,0,0
20453,0.038375,0.01044847087,0.000125,6.25e-08,0,0,0
20454,0.038625,0.01044847087,0.000125,6.25e-08,0,0,0
20455,0.038875,0.01044847087,0.000125,6.25e-08,0,0,0
20456,0.039125,0.01044847087,0.000125,6.25e-08,0,0,0
20457,0.039375,0.01044847087,0.000125,6.25e-08,0,0,0
20458,0.039625,0.01044847087,0.000125,6.25e-08,0,0,0
20459,0.039875,0.01044847087,0.000125,6.25e-08,0,0,0
20460,0.040125,0.01044847087,0.000125,6.25e-08,0,0,0
20461,0.040375,0.01044847087,0.000125,6.25e-08,0,0,0
20462,0.040625,0.01044847087,0.000125,6.25e-08,0,0,0
20463,0.040875,0.01044847087,0.000125,6.25e-08,0,0,0
20464,0.041125,0.01044847087,0.000125,6.25e-08,0,0,0
20465,0.041375,0.01044847087,0.000125,6.25e-08,0,0,0
20466,0.041625,0.01044847087,0.000125,6.25e-08,0,0,0
20467,0.041875,0.01044847087,0.000125,6.25e-08,0,0,0
20468,0.042125,0.01044847087,0.000125,6.25e-08,0,0,0
20469,0.042375,0.01044847087,0.000125,6.25e-08,0,0,0
20470,0.042625,0.01044847087,0.000125,6.25e-08,0,0,0
20471,0.042875,0.01044847087,0.000125,6.25e-08,0,0,0
20472,0.043125,0.01044847087,0.000125,6.25e-08,0,0,0
20473,0.043375,0.01044847087,0.000125,6.25e-08,0,0,0
20474,0.043625,0.01044847087,0.000125,6.25e-08,0,0,0
20475,0.043875,0.01044847087,0.000125,6.25e-08,0,0,0
20476,0.044125,0.01044847087,0.000125,6.25e-08,0,0,0
20477,0.044375,0.01044847087,0.000125,6.25e-08,0,0,0
20478,0.044625,0.01044847087,0.000125,6.25e-08,0,0,0
20479,0.044875,0.01044847087,0.000125,6.25e-08,0,0,0
20480,0.045125,0.01044847087,0.000125,6.25e-08,0,0,0
20481,0.045375,0.01044847087,0.000125,6.25e-08,0,0,0
20482,0.045625,0.01044847087,0.000125,6.25e-08,0,0,0
20483,0.045875,0.01044847087,0.000125,6.25e-08,0,0,0
20484,0.046125,0.01044847087,0.000125,6.25e-08,0,0,0
20485,0.046375,0.01044847087,0.000125,6.25e-08,0,0,0
20486,0.046625,0.01044847087,0.000125,6.25e-08,0,0,0
20487,0.046875,0.01044847087,0.000125,6.25e-08,0,0,0
20488,0.047125,0.01044847087,0.000125,6.25e-08,0,0,0
20489,0.047375,0.01044847087,0.000125,6.25e-08,0,0,0
20490,0.047625,0.01044847087,0.000125,6.25e-08,0,0,0
20491,0.047875,0.01044847087,0.000125,6.25e-08,0,0,0
20492,0.048125,0.01044847087,0.000125,6.25e-08,0,0,0
20493,0.048375,0.01044847087,0.000125,6.25e-08,0,0,0
20494,0.048625,0.01044847087,0.000125,6.25e-08,0,0,0
20495,0.048875,0.01044847087,0.000125,6.25e-08,0,0,0
20496,0.049125,0.01044847087,0.000125,6.25e-08,0,0,0
20497,0.049375,0.01044847087,0.000125,6.25e-08,0,0,0
20498,0.049625,0.01044847087,0.000125,6.25e-08,0,0,0
20499,0.049875,0.01044847087,0.000125,6.25e-08,0,0,0
20500,0.050125,0.01044847087,0.000125,6.25e-08,0,0,0
20501,0.050375,0.01044847087,0.000125,6.25e-08,0,0,0
20502,0.050625,0.01044847087,0.000125,6.25e-08,0,0,0
20503,0.050875,0.01044847087,0.000125,6.25e-08,0,0,0
20504,0.051125,0.01044847087,0.000125,6.25e-08,0,0,0
20505,0.051375,0.01044847087,0.000125,6.25e-08,0,0,0
20506,0.051625,0.01044847087,0.000125,6.25e-08,0,0,0
20507,0.051875,0.01044847087,0.000125,6.25e-08,0,0,0
20508,0.052125,0.01044847087,0.000125,6.25e-08,0,0,0
20509,0.052375,0.01044847087,0.000125,6.25e-08,0,0,0
20510,0.052625,0.01044847087,0.000125,6.25e-08,0,0,0
20511,0.052875,0.01044847087,0.000125,6.25e-08,0,0,0
20512,0.053125,0.01044847087,0.000125,6.25e-08,0,0,0
20513,0.053375,0.01044847087,0.000125,6.25e-08,0,0,0
20514,0.053625,0.01044847087,0.000125,6.25e-08,0,0,0
20515,0.053875,0.01044847087,0.000125,6.25e-08,0,0,0
20516,0.054125,0.01044847087,0.000125,6.25e-08,0,0,0
20517,0.054375,0.01044847087,0.000125,6.25e-08,0,0,0
20518,0.054625,0.01044847087,0.000125,6.25e-08,0,0,0
20519,0.054875,0.01044847087,0.000125,6.25e-08,0,0,0
20520,0.055125,0.01044847087,0.000125,6.25e-08,0,0,0
20521,0.055375,0.01044847087,0.000125,6.25e-08,0,0,0
20522,0.055625,0.01044847087,0.000125,6.25e-08,0,0,0
20523,0.055875,0.01044847087,0.000125,6.25e-08,0,0,0
20524,0.056125,0.01044847087,0.000125,6.25e-08,0,0,0
20525,0.056375,0.01044847087,0.000125,6.25e-08,0,0,0
20526,0.056625,0.01044847087,0.000125,6.25e-08,0,0,0
20527,0.056875,0.01044847087,0.000125,6.25e-08,0,0,0
20528,0.057125,0.01044847087,0.000125,6.25e-08,0,0,0
20529,0.057375,0.01044847087,0.000125,6.25e-08,0,0,0
20530,0.057625,0.01044847087,0.000125,6.25e-08,0,0,0
20531,0.057875,0.01044847087,0.000125,6.25e-08,0,0,0
20532,0.058125,0.01044847087,0.000125,6.25e-08,0,0,0
20533,0.058375,0.01044847087,0.000125,6.25e-08,0,0,0
20534,0.058625,0.01044847087,0.000125,6.25e-08,0,0,0
20535,0.058875,0.01044847087,0.000125,6.25e-08,0,0,0
20536,0.059125,0.01044847087,0.000125,6.25e-08,0,0,0
20537,0.059375,0.01044847087,0.000125,6.25e-08,0,0,0
20538,0.059625,0.01044847087,0.000125,6.25e-08,0,0,0
20539,0.059875,0.01044847087,0.000125,6.25e-08,0,0,0
20540,0.060125,0.01044847087,0.000125,6.25e-08,0,0,0
20541,0.060375,0.01044847087,0.000125,6.25e-08,0,0,0
20542,0.060625,0.01044847087,0.000125,6.25e-08,0,0,0
20543,0.060875,0.01044847087,0.000125,6.25e-08,0,0,0
20544,0.061125,0.01044847087,0.000125,6.25e-08,0,0,0
20545,0.061375,0.01044847087,0.000125,6.25e-08,0,0,0
20546,0.061625,0.01044847087,0.000125,6.25e-08,0,0,0
20547,0.061875,0.01044847087,0.000125,6.25e-08,0,0,0
20548,0.062125,0.01044847087,0.000125,6.25e-08,0,0,0
20549,0.062375,0.01044847087,0.000125,6.25e-08,0,0,0
20550,0.062625,0.01044847087,0.000125,6.25e-08,0,0,0
20551,0.062875,0.01044847087,0.000125,6.25e-08,0,0,0
20552,0.063125,0.01044847087,0.000125,6.25e-08,0,0,0
20553,0.063375,0.01044847087,0.000125,6.25e-08,0,0,0
20554,0.063625,0.01044847087,0.000125,6.25e-08,0,0,0
20555,0.063875,0.01044847087,0.000125,6.25e-08,0,0,0
20556,0.064125,0.01044847087,0.000125,6.25e-08,0,0,0
20557,0.064375,0.01044847087,0.000125,6.25e-08,0,0,0
20558,0.064625,0.01044847087,0.000125,6.25e-08,0,0,0
20559,0.064875,0.01044847087,0.000125,6.25e-08,0,0,0
20560,0.065125,0.01044847087,0.000125,6.25e-08,0,0,0
20561,0.065375,0.01044847087,0.000125,6.25e-08,0,0,0
20562,0.065625,0.01044847087,0.000125,6.25e-08,0,0,0
20563,0.065875,0.01044847087,0.000125,6.25e-08,0,0,0
20564,0.066125,0.01044847087,0.000125,6.25e-08,0,0,0
20565,0.066375,0.01044847087,0.000125,6.25e-08,0,0,0
20566,0.066625,0.01044847087,0.000125,6.25e-08,0,0,0
20567,0.066875,0.01044847087,0.000125,6.25e-08,0,0,0
20568,0.067125,0.01044847087,0.000125,6.25e-08,0,0,0
20569,0.067375,0.01044847087,0.000125,6.25e-08,0,0,0
20570,0.067625,0.01044847087,0.000125,6.25e-08,0,0,0
20571,0.067875,0.01044847087,0.000125,6.25e-08,0,0,0
20572,0.068125,0.01044847087,0.000125,6.25e-08,0,0,0
20573,0.068375,0.01044847087,0.000125,6.25e-08,0,0,0
20574,0.068625,0.01044847087,0.000125,6.25e-08,0,0,0
20575,0.068875,0.01044847087,0.000125,6.25e-08,0,0,0
20576,0.069125,0.01044847087,0.000125,6.25e-08,0,0,0
20577,0.069375,0.01044847087,0.000125,6.25e-08,0,0,0
20578,0.069625,0.01044847087,0.000125,6.25e-08,0,0,0
20579,0.069875,0.01044847087,0.000125,6.25e-08,0,0,0
20580,0.070125,0.01044847087,0.000125,6.25e-08,0,0,0
20581,0.070375,0.01044847087,0.000125,6.25e-08,0,0,0
20582,0.070625,0.01044847087,0.000125,6.25e-08,0,0,0
20583,0.070875,0.01044847087,0.000125,6.25e-08,0,0,0
20584,0.071125,0.01044847087,0.000125,6.25e-08,0,0,0
20585,0.071375,0.01044847087,0.000125,6.25e-08,0,0,0
20586,0.071625,0.01044847087,0.000125,6.25e-08,0,0,0
20587,0.071875,0.01044847087,0.000125,6.25e-08,0,0,0
20588,0.072125,0.01044847087,0.000125,6.25e-08,0,0,0
20589,0.072375,0.01044847087,0.000125,6.25e-08,0,0,0
20590,0.072625,0.01044847087,0.000125,6.25e-08,0,0,0
20591,0.072875,0.01044847087,0.000125,6.25e-08,0,0,0
20592,0.073125,0.01044847087,0.000125,6.25e-08,0,0,0
20593,0.073375,0.01044847087,0.000125,6.25e-08,0,0,0
20594,0.073625,0.01044847087,0.000125,6.25e-08,0,0,0
20595,0.073875,0.01044847087,0.000125,6.25e-08,0,0,0
20596,0.074125,0.01044847087,0.000125,6.25e-08,0,0,0
20597,0.074375,0.01044847087,0.000125,6.25e-08,0,0,0
20598,0.074625,0.01044847087,0.000125,6.25e-08,0,0,0
20599,0.074875,0.01044847087,0.000125,6.25e-08,0,0,0
20600,0.075125,0.01044847087,0.000125,6.25e-08,0,0,0
20601,0.075375,0.01044847087,0.000125,6.25e-08,0,0,0
20602,0.075625,0.01044847087,0.000125,6.25e-08,0,0,0
20603,0.075875,0.01044847087,0.000125,6.25e-08,0,0,0
20604,0.076125,0.01044847087,0.000125,6.25e-08,0,0,0
20605,0.076375,0.01044847087,0.000125,6.25e-08,0,0,0
20606,0.076625,0.01044847087,0.000125,6.25e-08,0,0,0
20607,0.076875,0.01044847087,0.000125,6.25e-08,0,0,0
20608,0.077125,0.01044847087,0.000125,6.25e-08,0,0,0
20609,0.077375,0.01044847087,0.000125,6.25e-08,0,0,0
20610,0.077625,0.01044847087,0.000125,6.25e-08,0,0,0
20611,0.077875,0.01044847087,0.000125,6.25e-08,0,0,0
20612,0.078125,0.01044847087,0.000125,6.25e-08,0,0,0
20613,0.078375,0.01044847087,0.000125,6.25e-08,0,0,0
20614,0.078625,0.01044847087,0.000125,6.25e-08,0,0,0
20615,0.078875,0.01044847087,0.000125,6.25e-08,0,0,0
20616,0.079125,0.01044847087,0.000125,6.25e-08,0,0,0
20617,0.079375,0.01044847087,0.000125,6.25e-08,0,0,0
20618,0.079625,0.01044847087,0.000125,6.25e-08,0,0,0
20619,0.079875,0.01044847087,0.000125,6.25e-08,0,0,0
20620,0.080125,0.01044847087,0.000125,6.25e-08,0,0,0
20621,0.080375,0.01044847087,0.000125,6.25e-08,0,0,0
20622,0.080625,0.01044847087,0.000125,6.25e-08,0,0,0
20623,0.080875,0.01044847087,0.000125,6.25e-08,0,0,0
20624,0.081125,0.01044847087,0.000125,6.25e-08,0,0,0
20625,0.081375,0.01044847087,0.000125,6.25e-08,0,0,0
20626,0.081625,0.01044847087,0.000125,6.25e-08,0,0,0
20627,0.081875,0.01044847087,0.000125,6.25e-08,0,0,0
20628,0.082125,0.01044847087,0.000125,6.25e-08,0,0,0
20629,0.082375,0.01044847087,0.000125,6.25e-08,0,0,0
20630,0.082625,0.01044847087,0.000125,6.25e-08,0,0,0
20631,0.082875,0.01044847087,0.000125,6.25e-08,0,0,0
20632,0.083125,0.01044847087,0.000125,6.25e-08,0,0,0
20633,0.083375,0.01044847087,0.000125,6.25e-08,0,0,0
20634,0.083625,0.01044847087,0.000125,6.25e-08,0,0,0
20635,0.083875,0.01044847087,0.000125,6.25e-08,0,0,0
20636,0.084125,0.01044847087,0.000125,6.25e-08,0,0,0
20637,0.084375,0.01044847087,0.000125,6.25e-08,0,0,0
20638,0.084625,0.01044847087,0.000125,6.25e-08,0,0,0
20639,0.084875,0.01044847087,0.000125,6.25e-08,0,0,0
20640,0.085125,0.01044847087,0.000125,6.25e-08,0,0,0
20641,0.085375,0.01044847087,0.000125,6.25e-08,0,0,0
20642,0.085625,0.01044847087,0.000125,6.25e-08,0,0,0
20643,0.085875,0.01044847087,0.000125,6.25e-08,0,0,0
20644,0.086125,0.01044847087,0.000125,6.25e-08,0,0,0
20645,0.086375,0.01044847087,0.000125,6.25e-08,0,0,0
20646,0.086625,0.01044847087,0.000125,6.25e-08,0,0,0
20647,0.086875,0.01044847087,0.000125,6.25e-08,0,0,0
20648,0.087125,0.01044847087,0.000125,6.25e-08,0,0,0
20649,0.087375,0.01044847087,0.000125,6.25e-08,0,0,0
20650,0.087625,0.01044847087,0.000125,6.25e-08,0,0,0
20651,0.087875,0.01044847087,0.000125,6.25e-08,0,0,0
20652,0.088125,0.01044847087,0.000125,6.25e-08,0,0,0
20653,0.088375,0.01044847087,0.000125,6.25e-08,0,0,0
20654,0.088625,0.01044847087,0.000125,6.25e-08,0,0,0
20655,0.088875,0.01044847087,0.000125,6.25e-08,0,0,0
20656,0.089125,0.01044847087,0.000125,6.25e-08,0,0,0
20657,0.089375,0.01044847087,0.000125,6.25e-08,0,0,0
20658,0.089625,0.01044847087,0.000125,6.25e-08,0,0,0
20659,0.089875,0.01044847087,0.000125,6.25e-08,0,0,0
20660,0.090125,0.01044847087,0.000125,6.25e-08,0,0,0
20661,0.090375,0.01044847087,0.000125,6.25e-08,0,0,0
20662,0.090625,0.01044847087,0.000125,6.25e-08,0,0,0
20663,0.090875,0.01044847087,0.000125,6.25e-08,0,0,0
20664,0.091125,0.01044847087,0.000125,6.25e-08,0,0,0
20665,0.091375,0.01044847087,0.000125,6.25e-08,0,0,0
20666,0.091625,0.01044847087,0.000125,6.25e-08,0,0,0
20667,0.091875,0.01044847087,0.000125,6.25e-08,0,0,0
20668,0.092125,0.01044847087,0.000125,6.25e-08,0,0,0
20669,0.092375,0.01044847087,0.000125,6.25e-08,0,0,0
20670,0.092625,0.01044847087,0.000125,6.25e-08,0,0,0
20671,0.092875,0.01044847087,0.000125,6.25e-08,0,0,0
20672,0.093125,0.01044847087,0.000125,6.25e-08,0,0,0
20673,0.093375,0.01044847087,0.000125,6.25e-08,0,0,0
20674,0.093625,0.01044847087,0.000125,6.25e-08,0,0,0
20675,0.093875,0.01044847087,0.000125,6.25e-08,0,0,0
20676,0.094125,0.01044847087,0.000125,6.25e-08,0,0,0
20677,0.094375,0.01044847087,0.000125,6.25e-08,0,0,0
20678,0.094625,0.01044847087,0.000125,6.25e-08,0,0,0
20679,0.094875,0.01044847087,0.000125,6.25e-08,0,0,0
20680,0.095125,0.01044847087,0.000125,6.25e-08,0,0,0
20681,0.095375,0.01044847087,0.000125,6.25e-08,0,0,0
20682,0.095625,0.01044847087,0.000125,6.25e-08,0,0,0
20683,0.095875,0.01044847087,0.000125,6.25e-08,0,0,0
20684,0.096125,0.01044847087,0.000125,6.25e-08,0,0,0
20685,0.096375,0.01044847087,0.000125,6.25e-08,0,0,0
20686,0.096625,0.01044847087,0.000125,6.25e-08,0,0,0
20687,0.096875,0.01044847087,0.000125,6.25e-08,0,0,0
20688,0.097125,0.01044847087,0.000125,6.25e-08,0,0,0
20689,0.097375,0.01044847087,0.000125,6.25e-08,0,0,0
20690,0.097625,0.01044847087,0.000125,6.25e-08,0,0,0
20691,0.097875,0.01044847087,0.000125,6.25e-08,0,0,0
20692,0.098125,0.01044847087,0.000125,6.25e-08,0,0,0
20693,0.098375,0.01044847087,0.000125,6.25e-08,0,0,0
20694,0.098625,0.01044847087,0.000125,6.25e-08,0,0,0
20695,0.098875,0.01044847087,0.000125,6.25e-08,0,0,0
20696,0.099125,0.01044847087,0.000125,6.25e-08,0,0,0
20697,0.099375,0.01044847087,0.000125,6.25e-08,0,0,0
20698,0.099625,0.01044847087,0.000125,6.25e-08,0,0,0
20699,0.099875,0.01044847087,0.000125,6.25e-08,0,0,0
20700,0.100125,0.01044847087,0.000125,6.25e-08,0,0,0
20701,0.100375,0.01044847087,0.000125,6.25e-08,0,0,0
20702,0.100625,0.01044847087,0.000125,6.25e-08,0,0,0
20703,0.100875,0.01044847087,0.000125,6.25e-08,0,0,0
20704,0.101125,0.01044847087,0.000125,6.25e-08,0,0,0
20705,0.101375,0.01044847087,0.000125,6.25e-08,0,0,0
20706,0.101625,0.01044847087,0.000125,6.25e-08,0,0,0
20707,0.101875,0.01044847087,0.000125,6.25e-08,0,0,0
20708,0.102125,0.01044847087,0.000125,6.25e-08,0,0,0
20709,0.102375,0.01044847087,0.000125,6.25e-08,0,0,0
20710,0.102625,0.01044847087,0.000125,6.25e-08,0,0,0
20711,0.102875,0.01044847087,0.000125,6.25e-08,0,0,0
20712,0.103125,0.01044847087,0.000125,6.25e-08,0,0,0
20713,0.103375,0.01044847087,0.000125,6.25e-08,0,0,0
20714,0.103625,0.01044847087,0.000125,6.25e-08,0,0,0
20715,0.103875,0.01044847087,0.000125,6.25e-08,0,0,0
20716,0.104125,0.01044847087,0.000125,6.25e-08,0,0,0
20717,0.104375,0.01044847087,0.000125,6.25e-08,0,0,0
20718,0.104625,0.01044847087,0.000125,6.25e-08,0,0,0
20719,0.104875,0.01044847087,0.000125,6.25e-08,0,0,0
20720,0.105125,0.01044847087,0.000125,6.25e-08,0,0,0
20721,0.105375,0.01044847087,0.000125,6.25e-08,0,0,0
20722,0.105625,0.01044847087,0.000125,6.25e-08,0,0,0
20723,0.105875,0.01044847087,0.000125,6.25e-08,0,0,0
20724,0.106125,0.01044847087,0.000125,6.25e-08,0,0,0
20725,0.106375,0.01044847087,0.000125,6.25e-08,0,0,0
20726,0.106625,0.01044847087,0.000125,6.25e-08,0,0,0
20727,0.106875,0.01044847087,0.000125,6.25e-08,0,0,0
20728,0.107125,0.01044847087,0.000125,6.25e-08,0,0,0
20729,0.107375,0.01044847087,0.000125,6.25e-08,0,0,0
20730,0.107625,0.01044847087,0.000125,6.25e-08,0,0,0
20731,0.107875,0.01044847087,0.000125,6.25e-08,0,0,0
20732,0.108125,0.01044847087,0.000125,6.25e-08,0,0,0