cellI,x,y,z,sigma_xx,sigma_xy,sigma_xz,sigma_yy,sigma_yz,sigma_zz
0,0.000125,0.000125,0.000125,5.224268544,-0.03671594675,-0,5.209711945,-0,5.224236503
1,0.000375,0.000125,0.000125,6.639715513,-0.08045413213,-0,6.603758973,-0,6.639639938
2,0.000625,0.000125,0.000125,8.10291346,-0.1513249702,-0,8.062380749,-0,8.102692372
3,0.000875,0.000125,0.000125,9.601982223,-0.2426133135,-0,9.558676358,-0,9.601553199
4,0.001125,0.000125,0.000125,11.12263821,-0.3518346006,-0,11.07627402,-0,11.12195857
5,0.001375,0.000125,0.000125,12.65126359,-0.4773072637,-0,12.60258424,-0,12.65028059
6,0.001625,0.000125,0.000125,14.17608831,-0.618281372,-0,14.12586049,-0,14.17473992
7,0.001875,0.000125,0.000125,15.68703073,-0.7740246101,-0,15.63528001,-0,15.68525651
8,0.002125,0.000125,0.000125,17.17497014,-0.9436878098,-0,17.12221657,-0,17.17271423
9,0.002375,0.000125,0.000125,18.63231642,-1.126241477,-0,18.57885936,-0,18.62952638
10,0.002625,0.000125,0.000125,20.05258562,-1.32062221,-0,19.99879283,-0,20.04921167
11,0.002875,0.000125,0.000125,21.43064023,-1.525786863,-0,21.37624089,-0,21.42663553
12,0.003125,0.000125,0.000125,22.76209026,-1.740797155,-0,22.706992,-0,22.75741202
13,0.003375,0.000125,0.000125,24.04340256,-1.964701753,-0,23.98791336,-0,24.0380127
14,0.003625,0.000125,0.000125,25.27223247,-2.196538221,-0,25.21601907,-0,25.26609651
15,0.003875,0.000125,0.000125,26.4466524,-2.435301334,-0,26.38974598,-0,26.43973992
16,0.004125,0.000125,0.000125,27.56549093,-2.68000632,-0,27.50802045,-0,27.55777682
17,0.004375,0.000125,0.000125,28.62822495,-2.929727013,-0,28.57023435,-0,28.61968915
18,0.004625,0.000125,0.000125,29.63483183,-3.183607743,-0,29.57631199,-0,29.62545842
19,0.004875,0.000125,0.000125,30.58572524,-3.440849963,-0,30.52662152,-0,30.57550206
20,0.005125,0.000125,0.000125,31.48162897,-3.7006571,-0,31.4220268,-0,31.47054842
21,0.005375,0.000125,0.000125,32.32361671,-3.962268007,-0,32.26362813,-0,32.31167558
22,0.005625,0.000125,0.000125,33.11316689,-4.225015388,-0,33.05248785,-0,33.10036458
23,0.005875,0.000125,0.000125,33.85186088,-4.488318612,-0,33.79008046,-0,33.83819904
24,0.006125,0.000125,0.000125,34.54137412,-4.751640037,-0,34.47817538,-0,34.52685766
25,0.006375,0.000125,0.000125,35.18349737,-5.014467788,-0,35.11867877,-0,35.16813479
26,0.006625,0.000125,0.000125,35.78014177,-5.276324022,-0,35.71352176,-0,35.76394437
27,0.006875,0.000125,0.000125,36.33328179,-5.536775886,-0,36.2646843,-0,36.3162629
28,0.007125,0.000125,0.000125,36.84491817,-5.795437263,-0,36.77419027,-0,36.82709292
29,0.007375,0.000125,0.000125,37.31704808,-6.051963501,-0,37.24410042,-0,37.29843366
30,0.007625,0.000125,0.000125,37.75166949,-6.306050377,-0,37.67644841,-0,37.73228539
31,0.007875,0.000125,0.000125,38.15077819,-6.55742871,-0,38.07320185,-0,38.13064548
32,0.008125,0.000125,0.000125,38.51633531,-6.805858679,-0,38.43628877,-0,38.49547557
33,0.008375,0.000125,0.000125,38.85024518,-7.051140107,-0,38.76760889,-0,38.82867997
34,0.008625,0.000125,0.000125,39.15434534,-7.293100151,-0,39.0690275,-0,39.13209636
35,0.008875,0.000125,0.000125,39.43041482,-7.531578829,-0,39.34233908,-0,39.40750466
36,0.009125,0.000125,0.000125,39.68018364,-7.766448193,-0,39.58923594,-0,39.65663582
37,0.009375,0.000125,0.000125,39.9053099,-7.997611627,-0,39.81134557,-0,39.88114774
38,0.009625,0.000125,0.000125,40.10736241,-8.224991036,-0,40.01025738,-0,40.08260851
39,0.009875,0.000125,0.000125,40.28782766,-8.448527179,-0,40.18750389,-0,40.26250457
40,0.010125,0.000125,0.000125,40.44812136,-8.668176725,-0,40.34453759,-0,40.42225211
41,0.010375,0.000125,0.000125,40.58959161,-8.88390808,-0,40.48272757,-0,40.56319948
42,0.010625,0.000125,0.000125,40.71351743,-9.095700519,-0,40.60336594,-0,40.68662549
43,0.010875,0.000125,0.000125,40.82110845,-9.303544862,-0,40.70767256,-0,40.79373942
44,0.011125,0.000125,0.000125,40.91350532,-9.507443335,-0,40.79679972,-0,40.88568156
45,0.011375,0.000125,0.000125,40.99178607,-9.707405458,-0,40.87182578,-0,40.96352957
46,0.011625,0.000125,0.000125,41.05695861,-9.903454036,-0,40.93377752,-0,41.02829108
47,0.011875,0.000125,0.000125,41.10997164,-10.09561696,-0,40.98361598,-0,41.08091436
48,0.012125,0.000125,0.000125,41.15172309,-10.2839253,-0,41.02222762,-0,41.12229683
49,0.012375,0.000125,0.000125,41.18304823,-10.46841203,-0,41.05045572,-0,41.15327339
50,0.012625,0.000125,0.000125,41.20472846,-10.64911923,-0,41.06909098,-0,41.17462549
51,0.012875,0.000125,0.000125,41.21749487,-10.82609374,-0,41.07887327,-0,41.18708432
52,0.013125,0.000125,0.000125,41.22203142,-10.99938716,-0,41.08049414,-0,41.19133372
53,0.013375,0.000125,0.000125,41.21897763,-11.16905406,-0,41.07459916,-0,41.18801283
54,0.013625,0.000125,0.000125,41.20893006,-11.3351493,-0,41.06179238,-0,41.17771777
55,0.013875,0.000125,0.000125,41.19244542,-11.49772845,-0,41.04263744,-0,41.1610049
56,0.014125,0.000125,0.000125,41.17004171,-11.65684924,-0,41.0176623,-0,41.13839199
57,0.014375,0.000125,0.000125,41.14220222,-11.81256985,-0,40.98735848,-0,41.11036206
58,0.014625,0.000125,0.000125,41.10937688,-11.96494496,-0,40.95218463,-0,41.07736504
59,0.014875,0.000125,0.000125,41.07198392,-12.11402767,-0,40.91256973,-0,41.03981959
60,0.015125,0.000125,0.000125,41.03041294,-12.25987277,-0,40.86891342,-0,40.99811612
61,0.015375,0.000125,0.000125,40.98502712,-12.40253596,-0,40.82158847,-0,40.95261865
62,0.015625,0.000125,0.000125,40.93616431,-12.54207242,-0,40.77094438,-0,40.90366586
63,0.015875,0.000125,0.000125,40.88413843,-12.67853594,-0,40.71731004,-0,40.85157274
64,0.016125,0.000125,0.000125,40.82924124,-12.81197897,-0,40.66099533,-0,40.79663241
65,0.016375,0.000125,0.000125,40.77174418,-12.94245209,-0,40.60229292,-0,40.73911802
66,0.016625,0.000125,0.000125,40.71189971,-13.07000379,-0,40.54148042,-0,40.6792841
67,0.016875,0.000125,0.000125,40.64994275,-13.19468042,-0,40.47882253,-0,40.61736808
68,0.017125,0.000125,0.000125,40.58609149,-13.31652604,-0,40.41457415,-0,40.55359117
69,0.017375,0.000125,0.000125,40.52054969,-13.4355822,-0,40.3489806,-0,40.48816065
70,0.017625,0.000125,0.000125,40.45350407,-13.55188972,-0,40.28228737,-0,40.42126744
71,0.017875,0.000125,0.000125,40.38512977,-13.66548742,-0,40.21473409,-0,40.35309146
72,0.018125,0.000125,0.000125,40.31559269,-13.77639837,-0,40.1465537,-0,40.28380475
73,0.018375,0.000125,0.000125,40.24505309,-13.88461566,-0,40.07796877,-0,40.21357692
74,0.018625,0.000125,0.000125,40.17367111,-13.99015207,-0,40.00918887,-0,40.14257978
75,0.018875,0.000125,0.000125,40.10158881,-14.09304289,-0,39.9404564,-0,40.07096622
76,0.019125,0.000125,0.000125,40.02893368,-14.19330466,-0,39.87204314,-0,39.99887548
77,0.019375,0.000125,0.000125,39.95582611,-14.29093346,-0,39.80423835,-0,39.92644386
78,0.019625,0.000125,0.000125,39.88238229,-14.38591127,-0,39.73735132,-0,39.85380808
79,0.019875,0.000125,0.000125,39.80871417,-14.47820875,-0,39.67172176,-0,39.78110497
80,0.020125,0.000125,0.000125,39.73493119,-14.56778402,-0,39.60772719,-0,39.70847388
81,0.020375,0.000125,0.000125,39.66114227,-14.65458449,-0,39.54579076,-0,39.63606015
82,0.020625,0.000125,0.000125,39.58744983,-14.73854948,-0,39.48640803,-0,39.56401038
83,0.020875,0.000125,0.000125,39.51397312,-14.81962442,-0,39.43011351,-0,39.49250125
84,0.021125,0.000125,0.000125,39.44076671,-14.89764587,-0,39.37766309,-0,39.4216653
85,0.021375,0.000125,0.000125,39.36823217,-14.97261769,-0,39.32925246,-0,39.35199639
86,0.021625,0.000125,0.000125,39.30502228,-15.04217446,-0,39.26873828,-0,39.29226155
87,0.021875,0.000125,0.000125,39.24508711,-15.10597741,-0,39.20961717,-0,39.23652624
88,0.022125,0.000125,0.000125,39.18561514,-15.16199365,-0,39.1590275,-0,39.18218713
89,0.022375,0.000125,0.000125,39.11678775,-15.21408714,-0,39.13076295,-0,39.11977161
90,0.022625,0.000125,0.000125,39.04350623,-15.25684243,-0,39.10480411,-0,39.05465224
91,0.022875,0.000125,0.000125,38.97214841,-15.29153058,-0,39.06685015,-0,38.99371062
92,0.023125,0.000125,0.000125,38.87934888,-15.30060417,-0,39.06353058,-0,38.9141163
93,0.023375,0.000125,0.000125,38.77296976,-15.28458104,-0,39.07628809,-0,38.82477321
94,0.023625,0.000125,0.000125,38.65090846,-15.23428911,-0,39.10373144,-0,38.72537834
95,0.023875,0.000125,0.000125,38.50573845,-15.12955337,-0,39.15025623,-0,38.61147605
96,0.024125,0.000125,0.000125,38.31603711,-14.93345232,-0,39.23817098,-0,38.46614366
97,0.024375,0.000125,0.000125,38.05729272,-14.54278638,-0,39.38198376,-0,38.27311272
98,0.024625,0.000125,0.000125,37.62627559,-13.86976471,-0,39.66587317,-0,37.95808812
99,0.024875,0.000125,0.000125,37.23129965,-11.69050218,-0,39.88751147,-0,37.48596088
100,0.000125,0.000375,0.000125,3.884521268,-0.4306983172,-0,4.068911689,-0,4.092856995
101,0.000375,0.000375,0.000125,3.931678196,-0.3021245162,-0,4.099390525,-0,4.099426948
102,0.000625,0.000375,0.000125,4.064497679,-0.1194858614,-0,4.090500209,-0,4.086547664
103,0.000875,0.000375,0.000125,4.12232672,-0.07253310044,-0,4.127182563,-0,4.126533218
104,0.001125,0.000375,0.000125,4.177558631,-0.05216153159,-0,4.175297069,-0,4.179147174
105,0.001375,0.000375,0.000125,4.238041488,-0.03576703496,-0,4.231327028,-0,4.238638976
106,0.001625,0.000375,0.000125,4.30406586,-0.02302400347,-0,4.294633703,-0,4.304222645
107,0.001875,0.000375,0.000125,4.375491327,-0.05318174691,-0,4.36456618,-0,4.37577678
108,0.002125,0.000375,0.000125,4.452718,-0.08366669715,-0,4.440426701,-0,4.452720639
109,0.002375,0.000375,0.000125,4.535460555,-0.1140829861,-0,4.521727275,-0,4.534970954
110,0.002625,0.000375,0.000125,4.623321714,-0.1441235425,-0,4.608274921,-0,4.622220489
111,0.002875,0.000375,0.000125,4.715966296,-0.1752124412,-0,4.699789553,-0,4.714184401
112,0.003125,0.000375,0.000125,4.813148193,-0.2076975307,-0,4.795769648,-0,4.810658456
113,0.003375,0.000375,0.000125,4.914542159,-0.2389116662,-0,4.89578896,-0,4.911365007
114,0.003625,0.000375,0.000125,5.018872667,-0.2695655182,-0,5.001432946,-0,5.01499059
115,0.003875,0.000375,0.000125,5.126661368,-0.3009210502,-0,5.110637192,-0,5.122029763
116,0.004125,0.000375,0.000125,5.237727651,-0.3332990905,-0,5.222681655,-0,5.232311732
117,0.004375,0.000375,0.000125,5.351657674,-0.3667210788,-0,5.337303312,-0,5.345437738
118,0.004625,0.000375,0.000125,5.46808414,-0.4012024695,-0,5.454160041,-0,5.461044895
119,0.004875,0.000375,0.000125,5.586566709,-0.4367370121,-0,5.573093471,-0,5.578679673
120,0.005125,0.000375,0.000125,5.707746327,-0.4733536648,-0,5.69178281,-0,5.698976671
121,0.005375,0.000375,0.000125,5.832500352,-0.5115821595,-0,5.807448766,-0,5.82281622
122,0.005625,0.000375,0.000125,5.958007419,-0.5509287728,-0,5.924756203,-0,5.947388216
123,0.005875,0.000375,0.000125,6.082966992,-0.5913032862,-0,6.045374486,-0,6.071391729
124,0.006125,0.000375,0.000125,6.207649655,-0.6328319597,-0,6.167868649,-0,6.19509498
125,0.006375,0.000375,0.000125,6.332508328,-0.6756199247,-0,6.290481008,-0,6.31895076
126,0.006625,0.000375,0.000125,6.45727573,-0.7196551671,-0,6.412946682,-0,6.442692397
127,0.006875,0.000375,0.000125,6.581705647,-0.7648859724,-0,6.53501222,-0,6.566074621
128,0.007125,0.000375,0.000125,6.705576438,-0.8112439805,-0,6.656430021,-0,6.688877482
129,0.007375,0.000375,0.000125,6.828658811,-0.8587418911,-0,6.777019551,-0,6.810875518
130,0.007625,0.000375,0.000125,6.950729329,-0.9074462932,-0,6.896637763,-0,6.931851007
131,0.007875,0.000375,0.000125,7.071613535,-0.9573534258,-0,7.015106275,-0,7.05163119
132,0.008125,0.000375,0.000125,7.191167287,-1.00838294,-0,7.132250973,-0,7.17007112
133,0.008375,0.000375,0.000125,7.309254131,-1.06045355,-0,7.247939818,-0,7.287032671
134,0.008625,0.000375,0.000125,7.425782389,-1.113532595,-0,7.362012828,-0,7.402418703
135,0.008875,0.000375,0.000125,7.54063416,-1.16763606,-0,7.47440463,-0,7.51611277
136,0.009125,0.000375,0.000125,7.653689877,-1.222729661,-0,7.585088585,-0,7.628004797
137,0.009375,0.000375,0.000125,7.764909407,-1.27871565,-0,7.693940043,-0,7.73805663
138,0.009625,0.000375,0.000125,7.874253017,-1.33550935,-0,7.800885457,-0,7.846225506
139,0.009875,0.000375,0.000125,7.981675767,-1.39308249,-0,7.905896022,-0,7.952467751
140,0.010125,0.000375,0.000125,8.087144123,-1.451431325,-0,8.008955512,-0,8.056753285
141,0.010375,0.000375,0.000125,8.19064053,-1.510543527,-0,8.110055168,-0,8.159066362
142,0.010625,0.000375,0.000125,8.292161651,-1.570395176,-0,8.209194815,-0,8.259404095
143,0.010875,0.000375,0.000125,8.391714786,-1.630958084,-0,8.306385419,-0,8.357774554
144,0.011125,0.000375,0.000125,8.489317577,-1.692210173,-0,8.401647646,-0,8.454195857
145,0.011375,0.000375,0.000125,8.584995508,-1.754107094,-0,8.495011775,-0,8.548695736
146,0.011625,0.000375,0.000125,8.678786205,-1.816703998,-0,8.586514981,-0,8.641312613
147,0.011875,0.000375,0.000125,8.770728516,-1.879794522,-0,8.676199896,-0,8.732088367
148,0.012125,0.000375,0.000125,8.860876755,-1.943532078,-0,8.76412101,-0,8.821072595
149,0.012375,0.000375,0.000125,8.949285334,-2.007834283,-0,8.850338458,-0,8.908322228
150,0.012625,0.000375,0.000125,9.036009462,-2.072673708,-0,8.934921853,-0,8.993897485
151,0.012875,0.000375,0.000125,9.121110791,-2.138031543,-0,9.017941577,-0,9.077864412
152,0.013125,0.000375,0.000125,9.204659688,-2.203892393,-0,9.099464328,-0,9.160296344
153,0.013375,0.000375,0.000125,9.286731679,-2.270240033,-0,9.179560827,-0,9.241269354
154,0.013625,0.000375,0.000125,9.367404088,-2.337056934,-0,9.258308986,-0,9.320860466
155,0.013875,0.000375,0.000125,9.446755839,-2.404325847,-0,9.335789927,-0,9.399149634
156,0.014125,0.000375,0.000125,9.524870411,-2.472034257,-0,9.412081815,-0,9.476221874
157,0.014375,0.000375,0.000125,9.601832699,-2.540170671,-0,9.487267381,-0,9.552161961
158,0.014625,0.000375,0.000125,9.677723623,-2.608718286,-0,9.561439898,-0,9.627051219
159,0.014875,0.000375,0.000125,9.752620955,-2.677664095,-0,9.634694797,-0,9.700971828
160,0.015125,0.000375,0.000125,9.826602421,-2.746999337,-0,9.707123813,-0,9.774008447
161,0.015375,0.000375,0.000125,9.899746495,-2.816713978,-0,9.778816038,-0,9.846246068
162,0.015625,0.000375,0.000125,9.972130885,-2.886795741,-0,9.849859965,-0,9.917768269
163,0.015875,0.000375,0.000125,10.04383087,-2.95723331,-0,9.920344067,-0,9.988656839
164,0.016125,0.000375,0.000125,10.11491844,-3.028015465,-0,9.990356459,-0,10.0589916
165,0.016375,0.000375,0.000125,10.1854618,-3.099130802,-0,10.05998439,-0,10.12885005
166,0.016625,0.000375,0.000125,10.25552473,-3.170567474,-0,10.12931402,-0,10.19830683
167,0.016875,0.000375,0.000125,10.32516555,-3.242310574,-0,10.19843013,-0,10.26743316
168,0.017125,0.000375,0.000125,10.39443643,-3.314345935,-0,10.26741578,-0,10.33629632
169,0.017375,0.000375,0.000125,10.46338181,-3.386649563,-0,10.33635189,-0,10.40495914
170,0.017625,0.000375,0.000125,10.53203934,-3.459201731,-0,10.40531418,-0,10.47348075
171,0.017875,0.000375,0.000125,10.60044149,-3.531990228,-0,10.47437505,-0,10.54191283
172,0.018125,0.000375,0.000125,10.66862236,-3.605012521,-0,10.54359153,-0,10.61030467
173,0.018375,0.000375,0.000125,10.73656839,-3.678283152,-0,10.61306328,-0,10.6786861
174,0.018625,0.000375,0.000125,10.80419106,-3.751753222,-0,10.68296383,-0,10.74704321
175,0.018875,0.000375,0.000125,10.87148697,-3.825325817,-0,10.75328239,-0,10.81543026
176,0.019125,0.000375,0.000125,10.93840832,-3.898927093,-0,10.82406866,-0,10.88384512
177,0.019375,0.000375,0.000125,11.00486495,-3.972492143,-0,10.89538538,-0,10.95226469
178,0.019625,0.000375,0.000125,11.0707237,-4.04594006,-0,10.96729584,-0,11.02064886
179,0.019875,0.000375,0.000125,11.13580654,-4.119167904,-0,11.03986034,-0,11.08893431
180,0.020125,0.000375,0.000125,11.19988235,-4.192046624,-0,11.11313561,-0,11.15702896
181,0.020375,0.000375,0.000125,11.26265596,-4.264402672,-0,11.18716911,-0,11.22480813
182,0.020625,0.000375,0.000125,11.32376215,-4.336024717,-0,11.26198001,-0,11.2921176
183,0.020875,0.000375,0.000125,11.38276164,-4.40659005,-0,11.33756357,-0,11.35873739
184,0.021125,0.000375,0.000125,11.43907375,-4.475804937,-0,11.41391559,-0,11.42436978
185,0.021375,0.000375,0.000125,11.49198794,-4.54310575,-0,11.4909096,-0,11.48861924
186,0.021625,0.000375,0.000125,11.54024621,-4.607965671,-0,11.5691755,-0,11.55070957
187,0.021875,0.000375,0.000125,11.58242308,-4.669762321,-0,11.64865853,-0,11.61015573
188,0.022125,0.000375,0.000125,11.61541526,-4.727068885,-0,11.72906768,-0,11.66480842
189,0.022375,0.000375,0.000125,11.63931771,-4.77811886,-0,11.80981515,-0,11.71547769
190,0.022625,0.000375,0.000125,11.65432735,-4.821081628,-0,11.89559298,-0,11.76338403
191,0.022875,0.000375,0.000125,11.65829517,-4.853417964,-0,11.98508717,-0,11.8080867
192,0.023125,0.000375,0.000125,11.64453123,-4.869692986,-0,12.08350176,-0,11.84576041
193,0.023375,0.000375,0.000125,11.60835995,-4.861958084,-0,12.18929796,-0,11.87501016
194,0.023625,0.000375,0.000125,11.54226485,-4.813996,-0,12.30228881,-0,11.89191464
195,0.023875,0.000375,0.000125,11.43554374,-4.700784586,-0,12.4235895,-0,11.88857174
196,0.024125,0.000375,0.000125,11.27393998,-4.491718372,-0,12.55153953,-0,11.85630764
197,0.024375,0.000375,0.000125,11.05656781,-4.084383152,-0,12.67696893,-0,11.76400524
198,0.024625,0.000375,0.000125,10.81105219,-3.422196382,-0,12.72849046,-0,11.60847971
199,0.024875,0.000375,0.000125,10.52191537,-2.313254676,-0,12.83678343,-0,11.23693702
200,0.000125,0.000625,0.000125,3.870939537,-0.2672002981,-0,4.16017119,-0,3.964577321
201,0.000375,0.000625,0.000125,3.752217905,-0.08185360663,-0,4.279078981,-0,3.962259885
202,0.000625,0.000625,0.000125,3.740763697,0.01095733055,-0,4.279515113,-0,3.973747484
203,0.000875,0.000625,0.000125,3.76925089,0.02044033924,-0,4.250375847,-0,3.977531021
204,0.001125,0.000625,0.000125,3.798167842,0.01491712012,-0,4.223691567,-0,3.981112985
205,0.001375,0.000625,0.000125,3.822587128,0.004492584818,-0,4.201376862,-0,3.987491434
206,0.001625,0.000625,0.000125,3.846080136,-0.01196535738,-0,4.182071736,-0,3.994415366
207,0.001875,0.000625,0.000125,3.868215745,-0.03371372514,-0,4.167022234,-0,4.001022142
208,0.002125,0.000625,0.000125,3.888392825,-0.05864313174,-0,4.155483203,-0,4.008604098
209,0.002375,0.000625,0.000125,3.907219698,-0.08522726346,-0,4.147163668,-0,4.016788111
210,0.002625,0.000625,0.000125,3.924656189,-0.1123110403,-0,4.141680394,-0,4.025938463
211,0.002875,0.000625,0.000125,3.947806332,-0.124754762,-0,4.136024738,-0,4.031884418
212,0.003125,0.000625,0.000125,3.980221383,-0.1097105942,-0,4.127521349,-0,4.033656692
213,0.003375,0.000625,0.000125,4.004593806,-0.1000406852,-0,4.123998248,-0,4.040670636
214,0.003625,0.000625,0.000125,4.024159613,-0.0924133669,-0,4.124561341,-0,4.050518148
215,0.003875,0.000625,0.000125,4.0420046,-0.08528505455,-0,4.127411109,-0,4.061840673
216,0.004125,0.000625,0.000125,4.059025524,-0.07877039358,-0,4.131988749,-0,4.074224321
217,0.004375,0.000625,0.000125,4.075588982,-0.07290223507,-0,4.138073906,-0,4.087444466
218,0.004625,0.000625,0.000125,4.091968439,-0.06774654036,-0,4.145458217,-0,4.101355266
219,0.004875,0.000625,0.000125,4.108037127,-0.06680646376,-0,4.154130224,-0,4.116016
220,0.005125,0.000625,0.000125,4.122482938,-0.08840485634,-0,4.164608592,-0,4.132152762
221,0.005375,0.000625,0.000125,4.137688784,-0.1093682034,-0,4.175675986,-0,4.14851745
222,0.005625,0.000625,0.000125,4.153462704,-0.1302707933,-0,4.187555233,-0,4.164997469
223,0.005875,0.000625,0.000125,4.169710939,-0.1509606503,-0,4.200210335,-0,4.181640496
224,0.006125,0.000625,0.000125,4.186419604,-0.1716884592,-0,4.213488536,-0,4.198530802
225,0.006375,0.000625,0.000125,4.203594861,-0.1921081341,-0,4.227288591,-0,4.215680054
226,0.006625,0.000625,0.000125,4.221194328,-0.2128517969,-0,4.241557881,-0,4.233101627
227,0.006875,0.000625,0.000125,4.239177481,-0.2334146742,-0,4.256310922,-0,4.250739623
228,0.007125,0.000625,0.000125,4.257409439,-0.25494457,-0,4.271626551,-0,4.268572667
229,0.007375,0.000625,0.000125,4.275843562,-0.2778633472,-0,4.287424277,-0,4.286653047
230,0.007625,0.000625,0.000125,4.294569608,-0.2996756505,-0,4.303517898,-0,4.304994684
231,0.007875,0.000625,0.000125,4.313569872,-0.3208731974,-0,4.31989489,-0,4.323548402
232,0.008125,0.000625,0.000125,4.332809979,-0.3417540757,-0,4.336566296,-0,4.342262163
233,0.008375,0.000625,0.000125,4.352245987,-0.3625138743,-0,4.353518737,-0,4.361120673
234,0.008625,0.000625,0.000125,4.371203109,-0.3825467364,-0,4.371996116,-0,4.37948369
235,0.008875,0.000625,0.000125,4.389724421,-0.4026155562,-0,4.39183075,-0,4.397410015
236,0.009125,0.000625,0.000125,4.40874499,-0.4222025578,-0,4.411134395,-0,4.415784593
237,0.009375,0.000625,0.000125,4.428051162,-0.4420264711,-0,4.430277198,-0,4.434392244
238,0.009625,0.000625,0.000125,4.447450732,-0.4623678351,-0,4.449560153,-0,4.453071338
239,0.009875,0.000625,0.000125,4.466908984,-0.4831047375,-0,4.468964211,-0,4.471824821
240,0.010125,0.000625,0.000125,4.48642492,-0.5041911609,-0,4.488430709,-0,4.490664355
241,0.010375,0.000625,0.000125,4.505999816,-0.5255831755,-0,4.507920644,-0,4.509582942
242,0.010625,0.000625,0.000125,4.525621322,-0.5472437315,-0,4.527426769,-0,4.528558899
243,0.010875,0.000625,0.000125,4.545274907,-0.5691639972,-0,4.546940841,-0,4.547577303
244,0.011125,0.000625,0.000125,4.564954501,-0.5913182138,-0,4.566451773,-0,4.566621012
245,0.011375,0.000625,0.000125,4.584706641,-0.6137338197,-0,4.585786436,-0,4.585786436
246,0.011625,0.000625,0.000125,4.604628143,-0.6362097416,-0,4.604823005,-0,4.605069236
247,0.011875,0.000625,0.000125,4.62457882,-0.6591587655,-0,4.623765024,-0,4.624385091
248,0.012125,0.000625,0.000125,4.644459342,-0.6821586581,-0,4.642716556,-0,4.643708102
249,0.012375,0.000625,0.000125,4.664340524,-0.7053041458,-0,4.661626764,-0,4.663000524
250,0.012625,0.000625,0.000125,4.684207731,-0.7285706539,-0,4.680467183,-0,4.682290441
251,0.012875,0.000625,0.000125,4.704034505,-0.7520626228,-0,4.69926734,-0,4.701563624
252,0.013125,0.000625,0.000125,4.72378435,-0.7758331156,-0,4.7180887,-0,4.720787496
253,0.013375,0.000625,0.000125,4.743459879,-0.7998416778,-0,4.736924388,-0,4.739961615
254,0.013625,0.000625,0.000125,4.763080121,-0.8240502031,-0,4.755738122,-0,4.759101111
255,0.013875,0.000625,0.000125,4.78264581,-0.848455785,-0,4.774527374,-0,4.778208493
256,0.014125,0.000625,0.000125,4.802135849,-0.8730943322,-0,4.793335284,-0,4.797265473
257,0.014375,0.000625,0.000125,4.821567231,-0.8978580915,-0,4.812137483,-0,4.81628455
258,0.014625,0.000625,0.000125,4.840981686,-0.9226722992,-0,4.830858527,-0,4.835305693
259,0.014875,0.000625,0.000125,4.860382357,-0.9475472065,-0,4.849490144,-0,4.854341663
260,0.015125,0.000625,0.000125,4.879751134,-0.9725237217,-0,4.868067213,-0,4.873385138
261,0.015375,0.000625,0.000125,4.899079971,-0.9976227409,-0,4.886610295,-0,4.892434658
262,0.015625,0.000625,0.000125,4.91837085,-1.022845925,-0,4.90512102,-0,4.91149871
263,0.015875,0.000625,0.000125,4.937627341,-1.048185003,-0,4.923596438,-0,4.930589276
264,0.016125,0.000625,0.000125,4.956851755,-1.073630286,-0,4.942034911,-0,4.94971834
265,0.016375,0.000625,0.000125,4.976044656,-1.099167882,-0,4.96043598,-0,4.96889799
266,0.016625,0.000625,0.000125,4.995206691,-1.124776092,-0,4.978797218,-0,4.988141077
267,0.016875,0.000625,0.000125,5.014336358,-1.150427905,-0,4.997115359,-0,5.007461541
268,0.017125,0.000625,0.000125,5.033432101,-1.176085918,-0,5.015384827,-0,5.026872864
269,0.017375,0.000625,0.000125,5.052486911,-1.201700049,-0,5.033600891,-0,5.046389232
270,0.017625,0.000625,0.000125,5.071474887,-1.227195318,-0,5.051778715,-0,5.066018011
271,0.017875,0.000625,0.000125,5.090379426,-1.252484037,-0,5.069909367,-0,5.085775191
272,0.018125,0.000625,0.000125,5.109141829,-1.277413292,-0,5.088058568,-0,5.1056367
273,0.018375,0.000625,0.000125,5.127138099,-1.302123643,-0,5.107416165,-0,5.12501447
274,0.018625,0.000625,0.000125,5.143938108,-1.327208965,-0,5.128776544,-0,5.143519204
275,0.018875,0.000625,0.000125,5.160269306,-1.352107339,-0,5.150580991,-0,5.161937846
276,0.019125,0.000625,0.000125,5.17603163,-1.376596571,-0,5.172893712,-0,5.180241756
277,0.019375,0.000625,0.000125,5.191105969,-1.400550817,-0,5.195787338,-0,5.198391477
278,0.019625,0.000625,0.000125,5.205346431,-1.423837206,-0,5.219344414,-0,5.216338768
279,0.019875,0.000625,0.000125,5.218565942,-1.446272824,-0,5.243677274,-0,5.23401454
280,0.020125,0.000625,0.000125,5.230552096,-1.467697845,-0,5.268893445,-0,5.251342517
281,0.020375,0.000625,0.000125,5.240978372,-1.487997473,-0,5.295256266,-0,5.268161475
282,0.020625,0.000625,0.000125,5.249523029,-1.507198102,-0,5.322939921,-0,5.284346881
283,0.020875,0.000625,0.000125,5.255876151,-1.52447131,-0,5.352011396,-0,5.299785546
284,0.021125,0.000625,0.000125,5.259685222,-1.53923471,-0,5.38249118,-0,5.314354904
285,0.021375,0.000625,0.000125,5.260437081,-1.550033804,-0,5.414523926,-0,5.32782784
286,0.021625,0.000625,0.000125,5.257286418,-1.556462809,-0,5.448476853,-0,5.339851
287,0.021875,0.000625,0.000125,5.249019614,-1.557659294,-0,5.484454935,-0,5.349680597
288,0.022125,0.000625,0.000125,5.235693221,-1.551285346,-0,5.523776726,-0,5.35783276
289,0.022375,0.000625,0.000125,5.216772986,-1.534246784,-0,5.567923035,-0,5.364532919
290,0.022625,0.000625,0.000125,5.191442131,-1.499999634,-0,5.617179159,-0,5.369322924
291,0.022875,0.000625,0.000125,5.15975943,-1.429624377,-0,5.671982517,-0,5.370025695
292,0.023125,0.000625,0.000125,5.119790652,-1.338585286,-0,5.733615674,-0,5.366190758
293,0.023375,0.000625,0.000125,5.075444997,-1.182999464,-0,5.800305696,-0,5.353261985
294,0.023625,0.000625,0.000125,5.024334424,-0.9978716161,-0,5.873732711,-0,5.330886163
295,0.023875,0.000625,0.000125,4.973560714,-0.7352483151,-0,5.948135184,-0,5.295670878
296,0.024125,0.000625,0.000125,4.947598054,-0.3582370469,-0,6.004838099,-0,5.240266716
297,0.024375,0.000625,0.000125,4.898678803,-0.1154119588,-0,6.055542272,-0,5.201917901
298,0.024625,0.000625,0.000125,4.841744267,0.09891020977,-0,6.055422892,-0,5.207780147
299,0.024875,0.000625,0.000125,5.058527121,0.9584517752,-0,5.832621255,-0,5.152533303
300,0.000125,0.000875,0.000125,3.938576659,-0.2094633026,-0,4.072960195,-0,3.982326006
301,0.000375,0.000875,0.000125,3.849147921,-0.1445927701,-0,4.143295967,-0,3.995161164
302,0.000625,0.000875,0.000125,3.811919437,-0.07701380132,-0,4.162566778,-0,4.007108975
303,0.000875,0.000875,0.000125,3.805276004,-0.02813624774,-0,4.16501208,-0,4.005618014
304,0.001125,0.000875,0.000125,3.80595911,0.004984966304,-0,4.163638138,-0,4.001001396
305,0.001375,0.000875,0.000125,3.80561711,0.0291916692,-0,4.161728282,-0,3.998375592
306,0.001625,0.000875,0.000125,3.806523991,0.0459179899,-0,4.158142055,-0,3.996641554
307,0.001875,0.000875,0.000125,3.809251811,0.05619976399,-0,4.153520695,-0,3.994610834
308,0.002125,0.000875,0.000125,3.812762792,0.06130670764,-0,4.148638567,-0,3.992564829
309,0.002375,0.000875,0.000125,3.815728404,0.06326813051,-0,4.144810023,-0,3.990530945
310,0.002625,0.000875,0.000125,3.818938856,0.06232109539,-0,4.141146491,-0,3.988615203
311,0.002875,0.000875,0.000125,3.822742166,0.06012952754,-0,4.137111645,-0,3.987009057
312,0.003125,0.000875,0.000125,3.826156437,0.05740582407,-0,4.133511483,-0,3.985888277
313,0.003375,0.000875,0.000125,3.828847234,0.05117549906,-0,4.130752242,-0,3.985178072
314,0.003625,0.000875,0.000125,3.831337156,0.04370709235,-0,4.128548396,-0,3.984636388
315,0.003875,0.000875,0.000125,3.834144361,0.03547790856,-0,4.12661643,-0,3.98402144
316,0.004125,0.000875,0.000125,3.837199346,0.02630056438,-0,4.124943948,-0,3.983406316
317,0.004375,0.000875,0.000125,3.840365788,0.01621882635,-0,4.123526806,-0,3.982921352
318,0.004625,0.000875,0.000125,3.843628217,0.005363317688,-0,4.122289795,-0,3.982645924
319,0.004875,0.000875,0.000125,3.846664013,-0.006116152378,-0,4.121649408,-0,3.982474387
320,0.005125,0.000875,0.000125,3.849567152,-0.01840227296,-0,4.121523945,-0,3.982382191
321,0.005375,0.000875,0.000125,3.852724068,-0.03092206291,-0,4.121369557,-0,3.982513213
322,0.005625,0.000875,0.000125,3.856226613,-0.04390066185,-0,4.121095519,-0,3.98285234
323,0.005875,0.000875,0.000125,3.859807108,-0.05723282232,-0,4.120865253,-0,3.983489622
324,0.006125,0.000875,0.000125,3.863556751,-0.07078308965,-0,4.120657758,-0,3.984340267
325,0.006375,0.000875,0.000125,3.867294741,-0.08449994589,-0,4.120609775,-0,3.985433544
326,0.006625,0.000875,0.000125,3.87122618,-0.09836644264,-0,4.120633441,-0,3.986637203
327,0.006875,0.000875,0.000125,3.874922386,-0.1122515382,-0,4.120998725,-0,3.988094853
328,0.007125,0.000875,0.000125,3.881603734,-0.1195139257,-0,4.120252838,-0,3.988017478
329,0.007375,0.000875,0.000125,3.895299158,-0.1144056655,-0,4.116163035,-0,3.984581023
330,0.007625,0.000875,0.000125,3.907401772,-0.1103768582,-0,4.112680112,-0,3.982427066
331,0.007875,0.000875,0.000125,3.917487503,-0.1068171356,-0,4.11008721,-0,3.981681859
332,0.008125,0.000875,0.000125,3.926299352,-0.1033904322,-0,4.108181234,-0,3.981790302
333,0.008375,0.000875,0.000125,3.93443756,-0.09961244681,-0,4.106671517,-0,3.982427046
334,0.008625,0.000875,0.000125,3.941271347,-0.09722717604,-0,4.106047565,-0,3.983719128
335,0.008875,0.000875,0.000125,3.948442755,-0.09281000318,-0,4.105323652,-0,3.984993639
336,0.009125,0.000875,0.000125,3.951682535,-0.1035038279,-0,4.10640428,-0,3.988610824
337,0.009375,0.000875,0.000125,3.953422811,-0.1203718108,-0,4.108372942,-0,3.993046307
338,0.009625,0.000875,0.000125,3.955536953,-0.1367204204,-0,4.110391778,-0,3.997251295
339,0.009875,0.000875,0.000125,3.958056631,-0.152737825,-0,4.112372985,-0,4.001268892
340,0.010125,0.000875,0.000125,3.960899862,-0.1685102578,-0,4.114297433,-0,4.005187641
341,0.010375,0.000875,0.000125,3.964025637,-0.1840606461,-0,4.116162287,-0,4.009039306
342,0.010625,0.000875,0.000125,3.967924992,-0.1994689276,-0,4.116895523,-0,4.013392933
343,0.010875,0.000875,0.000125,3.972123839,-0.2146930382,-0,4.11739628,-0,4.017812429
344,0.011125,0.000875,0.000125,3.976434509,-0.2298589077,-0,4.117973691,-0,4.022166142
345,0.011375,0.000875,0.000125,3.980843752,-0.2448797582,-0,4.118628105,-0,4.026457177
346,0.011625,0.000875,0.000125,3.985277528,-0.2599677516,-0,4.119419017,-0,4.030691341
347,0.011875,0.000875,0.000125,3.989752533,-0.2748708422,-0,4.120364554,-0,4.034825171