/*--------------------------------*- C++ -*----------------------------------*\
  =========                 |
  \\      /  F ield         | OpenFOAM: The Open Source CFD Toolbox
   \\    /   O peration     | Website:  https://openfoam.org
    \\  /    A nd           | Version:  8
     \\/     M anipulation  |
\*---------------------------------------------------------------------------*/
FoamFile
{
    version     2.0;
    format      ascii;
    class       volScalarField;
    location    "3000";
    object      k;
}
// * * * * * * * * * * * * * * * * * * * * * * * * * * * * * * * * * * * * * //

dimensions      [0 2 -2 0 0 0 0];

internalField   nonuniform List<scalar> 
40000
(
7.829108496
9.941557212
12.13399329
14.38110589
16.6604354
18.95206421
21.23834436
23.50378362
25.73495047
27.92035108
30.05029506
32.11675832
34.11324714
36.03466431
37.87717402
39.63806915
41.3156441
42.90907422
44.41830112
45.84392441
47.18710209
48.44946021
49.63300966
50.74007019
51.77320358
52.73515546
53.62880395
54.45711449
55.22310068
55.92979108
56.58020164
57.17731276
57.72404982
58.22326702
58.6777346
59.09012928
59.4630277
59.7989016
60.10011415
60.36891806
60.60745553
60.81775933
61.00175443
61.16126022
61.2979933
61.41357071
61.5095136
61.58725099
61.64812377
61.69338867
61.72422246
61.74172623
61.74692964
61.74079481
61.72422011
61.69804388
61.663048
61.61996138
61.56946328
61.51218662
61.44872124
61.37961712
61.30538728
61.2265106
61.14343449
61.05657756
60.96633211
60.87306668
60.7771284
60.67884547
60.57852944
60.47647766
60.37297557
60.26829939
60.16271988
60.05650572
59.94992615
59.84325416
59.73677084
59.63077045
59.52556613
59.42149659
59.31893412
59.21829394
59.12004755
59.02474051
58.93301105
58.84561526
58.76341489
58.68366115
58.60148129
58.51635459
58.42849788
58.33701553
58.24000912
58.13373537
58.01017587
57.8561946
57.62511844
57.302386
6.023144976
6.065247834
6.120772776
6.188021251
6.266001437
6.354003746
6.451461104
6.557917144
6.67293267
6.796079392
6.926908562
7.064970125
7.209788148
7.360848063
7.517648102
7.679664162
7.846360519
8.017199362
8.191644538
8.369169926
8.549252904
8.731382669
8.915075919
9.099866604
9.285306642
9.470970048
9.656457405
9.841396244
10.02544197
10.20827694
10.38960905
10.5691755
10.74674469
10.92211331
11.09510696
11.26557578
11.43339163
11.59845304
11.76068199
11.92001977
12.07642646
12.22988103
12.38038028
12.52793738
12.67258054
12.81435151
12.9533069
13.08950839
13.22303518
13.35397301
13.4824144
13.60845839
13.73221018
13.85378093
13.97328677
14.0908477
14.20658705
14.32063102
14.43310737
14.54414379
14.65386734
14.7624043
14.86987956
14.97641589
15.08213325
15.18714812
15.29157279
15.39551442
15.49907427
15.60234642
15.70541713
15.80836469
15.91125928
16.01415888
16.11709905
16.22009981
16.32316105
16.42625751
16.5293342
16.6323006
16.73502346
16.8373166
16.93892988
17.0395313
17.13867956
17.23575839
17.33006564
17.42061867
17.50464568
17.58230527
17.65665218
17.72573452
17.7868967
17.83633403
17.86823415
17.87385249
17.84089357
17.74877099
17.57401118
17.29781791
5.997844024
5.996778386
5.997013147
5.998578879
6.001486197
6.005727712
6.011283619
6.018130061
6.026240063
6.035585738
6.046137523
6.057857744
6.070699712
6.084631345
6.099619551
6.115628191
6.132619297
6.150553677
6.169390961
6.189091676
6.209622146
6.23094111
6.253007703
6.275780885
6.299219471
6.323281753
6.347926918
6.373114013
6.398804329
6.424960443
6.451541095
6.478506582
6.505819219
6.533442698
6.561341458
6.589482593
6.617831989
6.646360302
6.675041111
6.703849008
6.732759992
6.761751701
6.790803495
6.819896526
6.849013643
6.878139757
6.907260192
6.936364467
6.965442
6.994483906
7.023482678
7.052432735
7.081330273
7.110172941
7.138959677
7.167690839
7.196368303
7.224994632
7.253572953
7.282107082
7.310601742
7.339062462
7.36749529
7.395906527
7.424302503
7.452689313
7.481072493
7.509456629
7.537844896
7.566238517
7.594635806
7.623031992
7.651418549
7.679784367
7.708116928
7.736394071
7.764583549
7.792642392
7.820514807
7.848128878
7.875394029
7.902198056
7.928404916
7.953836547
7.978265653
8.001394423
8.022807136
8.041577573
8.058651353
8.07461447
8.088972107
8.100883821
8.109798542
8.114506339
8.114476649
8.108683388
8.096351434
8.078069488
8.052473653
8.02184084
5.99693143
5.993802526
5.990797595
5.987953049
5.985299322
5.982860492
5.9806538
5.97869167
5.976983094
5.975534686
5.974350275
5.973431434
5.972778099
5.972388774
5.97226097
5.972391115
5.972774805
5.973406973
5.974281968
5.975393904
5.976736644
5.978303419
5.980087236
5.982080991
5.984277388
5.98666903
5.989248412
5.992007982
5.994937025
5.998021608
6.001254475
6.004628286
6.008135444
6.011768061
6.01551902
6.019380023
6.02334882
6.02742103
6.031590013
6.035849254
6.040192468
6.044613615
6.049106724
6.053666274
6.058287171
6.062964517
6.067693943
6.072471129
6.077292554
6.082154629
6.087056537
6.091994449
6.096963937
6.101962459
6.10698582
6.112032994
6.117097265
6.122177999
6.127274747
6.132386751
6.137513297
6.14265371
6.147807249
6.152973047
6.158150093
6.163337169
6.168532769
6.17373501
6.178941539
6.18414937
6.189355193
6.194554687
6.19974228
6.204910436
6.210048831
6.215146027
6.220188093
6.225157884
6.230033982
6.234790494
6.239391254
6.243801118
6.247936633
6.251753557
6.255154011
6.258047628
6.260323581
6.262308946
6.263950969
6.265212677
6.266178577
6.267069628
6.267737045
6.268459921
6.268752013
6.268883599
6.269584208
6.272235993
6.27886782
6.293647322
5.996874469
5.993611025
5.99036098
5.987130905
5.983927556
5.980757739
5.977627627
5.974542831
5.971508601
5.968529895
5.965611149
5.962756038
5.959967891
5.957249788
5.954604233
5.952033015
5.949537351
5.947118045
5.944775532
5.942509954
5.940321162
5.938208645
5.936171634
5.934209165
5.932320125
5.930503179
5.928756894
5.92707956
5.925469192
5.923923618
5.922440671
5.921018117
5.919653618
5.918344795
5.917089287
5.915884823
5.914729357
5.913620762
5.912556841
5.911535465
5.910554549
5.909612029
5.908705853
5.907834015
5.90699455
5.906185555
5.905405192
5.904651708
5.90392335
5.903217871
5.902529178
5.901855467
5.90119625
5.900549425
5.899915027
5.899289777
5.89867945
5.898083083
5.89749932
5.896926812
5.896364295
5.895810562
5.895264419
5.89472464
5.894189972
5.893659153
5.893130846
5.892603606
5.892075843
5.891545763
5.891011229
5.890469878
5.889918972
5.889355234
5.888774814
5.888173353
5.887545785
5.886886152
5.886187636
5.88544209
5.884642001
5.883775512
5.882873055
5.881915309
5.88091092
5.879831277
5.878723942
5.877607601
5.876515016
5.875502442
5.874665808
5.874142966
5.874172187
5.875060191
5.877410109
5.882081801
5.890425281
5.90458117
5.927556394
5.963524094
5.996863027
5.993583687
5.990309271
5.987040501
5.983778555
5.980524954
5.977281106
5.974048251
5.970827625
5.967620542
5.964428335
5.961252273
5.958093632
5.954953752
5.951833932
5.948735354
5.94565907
5.942606037
5.939577124
5.936573112
5.933594691
5.930642417
5.927716726
5.924817946
5.921946327
5.919102017
5.916285083
5.913495482
5.910732992
5.907997354
5.905288397
5.90260587
5.899949361
5.897318352
5.89471226
5.89213051
5.889572521
5.887037625
5.884525073
5.882034119
5.879564041
5.877114117
5.874683613
5.872271782
5.869877871
5.867501132
5.865140813
5.862796178
5.860466476
5.858150846
5.855848313
5.853558025
5.851279181
5.849010912
5.846752418
5.844502954
5.842262145
5.840029397
5.83780411
5.835585733
5.83337373
5.831167555
5.828966656
5.826770474
5.824578438
5.822389971
5.820204484
5.818021374
5.815840022
5.813659785
5.811479986
5.809299928
5.807118899
5.804936164
5.80275097
5.800562612
5.798370498
5.79617423
5.793973749
5.791769503
5.789562833
5.787357196
5.785158135
5.78297087
5.78081832
5.778731799
5.776744106
5.774903933
5.773282302
5.771982824
5.771163118
5.771055443
5.772000761
5.774481101
5.779168547
5.787022542
5.799419494
5.818269427
5.846029671
5.885603767
5.996857264
5.993571772
5.990290819
5.987014573
5.983743384
5.980477753
5.977218059
5.973964508
5.970717265
5.96747652
5.964242496
5.961015409
5.957795501
5.954583067
5.951378433
5.948181921
5.944993839
5.941814484
5.938644152
5.935483137
5.932331727
5.929190186
5.926058758
5.922937668
5.919827129
5.916727334
5.913638451
5.910560611
5.907493899
5.904438384
5.901394158
5.89836131
5.895339876
5.892329857
5.889331222
5.88634393
5.88336793
5.880403122
5.877449362
5.874506476
5.871574279
5.868652579
5.865741169
5.862839831
5.859948335
5.857066442
5.854193909
5.851330478
5.848475888
5.845629814
5.84279191
5.839961917
5.8371396
5.834324675
5.831516812
5.828715714
5.82592114
5.82313277
5.820350249
5.817573266
5.81480155
5.812034853
5.809272932
5.80651556
5.803762519
5.801013608
5.798268647
5.795527483
5.792789999
5.790056124
5.787325849
5.784599244
5.781876502
5.779157972
5.776444223
5.77373613
5.771035009
5.768342776
5.765662178
5.762997139
5.760353142
5.757738436
5.755164179
5.752650227
5.750221989
5.747910717
5.745760665
5.743835481
5.742224936
5.741054658
5.740502617
5.740820278
5.742359642
5.745606996
5.751222982
5.760094694
5.773396144
5.792636246
5.819638542
5.856396742
5.996853563
5.993564112
5.99027919
5.98699899
5.983723712
5.980453635
5.97718896
5.973929761
5.970676048
5.967427828
5.964185107
5.960947881
5.957716142
5.954489905
5.951269197
5.948054042
5.944844461
5.941640472
5.938442096
5.93524936
5.932062295
5.92888093
5.925705295
5.922535415
5.919371319
5.916213037
5.913060592
5.909914
5.906773267
5.903638399
5.900509419
5.897386362
5.894269257
5.891158123
5.888052971
5.884953811
5.88186065
5.878773482
5.875692281
5.872617006
5.869547614
5.866484059
5.863426291
5.860374253
5.857327887
5.854287127
5.851251904
5.848222141
5.845197755
5.842178638
5.83916468
5.836155794
5.833151919
5.830152978
5.827158881
5.824169551
5.821184926
5.818204916
5.815229405
5.812258287
5.809291475
5.806328901
5.803370508
5.800416261
5.797466144
5.794520171
5.791578395
5.788640913
5.785707885
5.782779547
5.779856238
5.776938431
5.774026778
5.771122171
5.76822582
5.765339362
5.762465017
5.759605792
5.756765765
5.753950485
5.751167495
5.748427133
5.745744465
5.743140282
5.740641576
5.738284651
5.736119055
5.734213111
5.732660847
5.731591178
5.73118113
5.731673444
5.733397808
5.736795697
5.742446877
5.75109696
5.763683658
5.781345753
5.805381279
5.837120019
5.996850985
5.993558736
5.990270941
5.986987855
5.983709664
5.980436592
5.977168812
5.973906396
5.970649345
5.96739764
5.964151251
5.960910138
5.957674256
5.954443558
5.951218003
5.947997551
5.944782154
5.941571766
5.938366338
5.935165823
5.931970177
5.928779353
5.925593306
5.922411988
5.919235357
5.916063368
5.912895977
5.909733141
5.906574812
5.903420949
5.900271519
5.8971265
5.893985872
5.890849611
5.887717692
5.884590095
5.881466798
5.878347778
5.875233005
5.872122446
5.869016064
5.865913829
5.862815708
5.859721667
5.856631676
5.853545699
5.850463704
5.847385653
5.844311508
5.841241224
5.838174751
5.835112056
5.832053115
5.828997914
5.825946432
5.822898658
5.819854587
5.816814212
5.813777513
5.810744475
5.807715093
5.804689384
5.801667378
5.798649128
5.79563471
5.792624236
5.789617857
5.786615782
5.783618284
5.78062573
5.777638601
5.774657534
5.771683365
5.7687172
5.765760502
5.762815208
5.759883896
5.756970001
5.754078118
5.751214414
5.748387178
5.745607655
5.742891453
5.740259268
5.73773893
5.735367717
5.733195721
5.731290652
5.729744119
5.72867958
5.728262777
5.728715034
5.730328838
5.73348489
5.738668883
5.74648549
5.75766531
5.773054301
5.793568061
5.820092814
5.996849106
5.993554805
5.990264851
5.986979545
5.983699098
5.980423712
5.977153544
5.973888675
5.970629125
5.967374884
5.964125922
5.960882198
5.957643661
5.954410259
5.951181936
5.947958637
5.944740302
5.94152687
5.938318276
5.93511446
5.931915359
5.928720912
5.925531056
5.922345729
5.919164872
5.915988424
5.912816326
5.909648519
5.906484947
5.903325554
5.900170292
5.897019119
5.893871994
5.89072888
5.887589736
5.884454528
5.881323219
5.878195774
5.875072156
5.871952324
5.868836241
5.865723869
5.862615174
5.859510122
5.85640868
5.853310818
5.850216503
5.847125704
5.844038392
5.840954533
5.837874098
5.834797063
5.831723411
5.828653135
5.825586227
5.822522683
5.819462506
5.8164057
5.813352268
5.810302216
5.807255563
5.804212342
5.801172604
5.798136417
5.795103879
5.792075115
5.789050297
5.786029646
5.783013455
5.780002103
5.776996089
5.773996066
5.771002888
5.768017682
5.765041935
5.762077614
5.759127332
5.756194567
5.75328396
5.750401713
5.747556115
5.744758441
5.742023728
5.739372177
5.736830826
5.734435771
5.732235169
5.730293321
5.728695958
5.727556826
5.727025872
5.727299145
5.728629915
5.731339997
5.735829546
5.74258264
5.752164642
5.765204843
5.782355105
5.804215661
5.996847687
5.993551838
5.99026024
5.986973205
5.983690962
5.980413719
5.977141635
5.973874797
5.970613241
5.967356969
5.964105963
5.960860186
5.957619593
5.954384129
5.951153735
5.94792835
5.94470791
5.94149235
5.938281603
5.935075601
5.931874279
5.928677572
5.925485413
5.922297739
5.919114486
5.915935592
5.912760996
5.909590639
5.906424463
5.903262414
5.900104442
5.8969505
5.893800544
5.890654535
5.88751243
5.884374191
5.88123978
5.878109159
5.874982291
5.871859138
5.868739661
5.865623826
5.862511597
5.859402943
5.856297831
5.85319623
5.850098111
5.847003445
5.843912202
5.840824357
5.837739883
5.834658758
5.831580967
5.828506497
5.825435337
5.822367481
5.819302926
5.816241672
5.813183718
5.810129069
5.807077738
5.804029747
5.800985136
5.797943959
5.794906295
5.79187225
5.788841965
5.785815629
5.782793495
5.779775898
5.776763279
5.773756226
5.770755515
5.767762182
5.764777605
5.761803626
5.758842709
5.755898153
5.752974379
5.750077307
5.747214878
5.744397771
5.741640277
5.738961533
5.736387083
5.733950913
5.731698112
5.729688336
5.728000195
5.726736642
5.726031375
5.726056193
5.727028808
5.729220126
5.732959462
5.738635372
5.746688996
5.757595728
5.771830276
5.789811278
5.996846592
5.993549548
5.990256673
5.986968281
5.983684609
5.98040587
5.977132227
5.973863782
5.970600583
5.967342647
5.964089964
5.960842507
5.957600233
5.954363091
5.95113102
5.947903961
5.944681846
5.941464607
5.938252177
5.935044487
5.931841468
5.928643052
5.925449172
5.922259763
5.91907476
5.915894101
5.912717724
5.909545572
5.906377587
5.903213715
5.900053906
5.896898114
5.893746294
5.890598403
5.887454402
5.88431425
5.881177911
5.878045347
5.874916521
5.871791398
5.868669941
5.865552118
5.862437895
5.85932724
5.856220124
5.853116517
5.85001639
5.846919715
5.843826465
5.840736614
5.837650137
5.834567013
5.83148722
5.828410744
5.825337567
5.822267675
5.819201058
5.816137703
5.8130776
5.810020741
5.806967124
5.803916751
5.800869637
5.797825807
5.794785304
5.791748192
5.788714565
5.785684557
5.782658358
5.779636236
5.776618538
5.773605741
5.770598497
5.767597693
5.764604536
5.761620664
5.7586483
5.755690458
5.752751209
5.749836039
5.746952363
5.744110129
5.741322689
5.738607904
5.735989581
5.733499311
5.731178816
5.729082918
5.727283208
5.725872431
5.724969526
5.724725124
5.725327016
5.727004736
5.730031923
5.734724639
5.741433328
5.750525723
5.762358091
5.777233448
5.996845737
5.993547758
5.990253881
5.986964415
5.983679602
5.980399655
5.977124747
5.973854988
5.97059044
5.967331131
5.964077063
5.960828214
5.957584549
5.954346019
5.951112568
5.947884133
5.944660648
5.941442045
5.938228254
5.935019204
5.931814826
5.92861505
5.925419807
5.922229031
5.919042657
5.915860621
5.912682861
5.909509319
5.906339939
5.903174665
5.900013449
5.89685624
5.893702995
5.890553671
5.887408225
5.884266619
5.881128814
5.877994772
5.874864459
5.871737837
5.868614873
5.865495533
5.862379785
5.859267598
5.856158941
5.853053784
5.849952098
5.846853855
5.843759028
5.840667589
5.837579512
5.83449477
5.831413341
5.828335199
5.825260323
5.822188689
5.819120273
5.816055051
5.812992999
5.809934092
5.806878307
5.803825623
5.800776024
5.797729502
5.794686056
5.791645703
5.788608478
5.78557445
5.782543728
5.779516488
5.776492975
5.773473567
5.770458786
5.76744933
5.764446201
5.761450809
5.75846511
5.755491794
5.752534545
5.749598378
5.746690117
5.743818968
5.740997315
5.738241746
5.735574363
5.733024446
5.730630536
5.728443004
5.72652716
5.724966855
5.723868497
5.723365216
5.723620721
5.7248321
5.727230457
5.731077964
5.73665964
5.744268114
5.754180029
5.766623834
5.996845063
5.99354635
5.990251685
5.986961369
5.983675644
5.980394727
5.977118794
5.973847964
5.970582311
5.967321873
5.964066661
5.960816662
5.957571846
5.954332168
5.951097575
5.947868006
5.944643394
5.941423672
5.938208768
5.934998611
5.931793131
5.928592255
5.925395916
5.922204044
5.919016574
5.915833441
5.912654584
5.909479943
5.906309461
5.903143082
5.899980757
5.896822435
5.893668071
5.89051762
5.88737104
5.88422829
5.881089331
5.877954125
5.874822636
5.871694827
5.868570664
5.865450112
5.862333139
5.859219713
5.856109801
5.853003374
5.8499004
5.846800849
5.843704692
5.840611899
5.837522438
5.83443628
5.831353394
5.828273751
5.825197317
5.822124058
5.819053941
5.815986925
5.812922971
5.809862036
5.806804073
5.803749037
5.800696881
5.79764756
5.794601031
5.79155726
5.788516225
5.785477926
5.782442392
5.779409701
5.77638
5.773353535
5.770330683
5.767312018
5.764298352
5.761290826
5.758291126
5.755301639
5.75232567
5.749367793
5.746434261
5.743533579
5.740677238
5.737880669
5.735164445
5.732555799
5.730090487
5.727815053
5.725789495
5.724090286
5.722813622
5.722078644
5.722030188
5.722840414
5.724708416
5.727856684
5.732523191
5.738947974
5.747353531
5.757919314
5.996844535
5.993545245
5.990249961
5.986958974
5.983672526
5.980390835
5.977114079
5.973842386
5.970575837
5.96731448
5.964058334
5.960807394
5.957561634
5.954321015
5.951085486
5.947854987
5.944629453
5.941408817
5.938193007
5.934981951
5.931775578
5.928573815
5.925376593
5.922183841
5.918995495
5.915811488
5.912631757
5.909456243
5.906284888
5.903117636
5.899954435
5.896795236
5.89363999
5.890488652
5.88734118
5.884197531
5.881057665
5.877921543
5.874789128
5.871660383
5.868535272
5.865413761
5.862295814
5.8591814
5.856070484
5.852963034
5.849859017
5.8467584
5.843661152
5.840567238
5.837476623
5.834389273
5.83130515
5.828224216
5.82514643
5.822071748
5.819000123
5.815931503
5.81286583
5.809803043
5.806743076
5.803685857
5.800631309
5.797579353
5.794529906
5.791482886
5.788438216
5.785395831
5.782355686
5.779317772
5.776282134
5.773248899
5.770218322
5.767190806
5.76416701
5.761147902
5.758134865
5.755130002
5.752136301
5.749157932
5.746200647
5.743272334
5.740383715
5.737549228
5.734788152
5.732126002
5.729596218
5.727242195
5.725119615
5.723299028
5.721868547
5.720936391
5.720632875
5.721111278
5.722546838
5.725132978
5.729073853
5.734572472
5.741814085
5.75094536
5.996844125
5.993544388
5.990248623
5.986957115
5.983670103
5.980387803
5.977110399
5.973838022
5.97057076
5.96730867
5.964051776
5.96080008
5.957553561
5.954312184
5.9510759
5.947844653
5.944618378
5.941397008
5.938180471
5.934968696
5.931761609
5.92855914
5.925361215
5.922167767
5.918978727
5.915794029
5.912613611
5.90943741
5.90626537
5.903097434
5.899933549
5.896773663
5.89361773
5.890465702
5.887317535
5.884173186
5.881032615
5.877895782
5.874762648
5.871633175
5.868507327
5.865385068
5.862266362
5.859151175
5.856039473
5.85293122
5.849826382
5.846724924
5.84362681
5.840532001
5.837440461
5.834352149
5.831267022
5.828185034
5.825106137
5.822030278
5.818957396
5.815887429
5.812820304
5.809755944
5.806694263
5.803635165
5.800578548
5.797524301
5.794472306
5.791422439
5.788374574
5.78532859
5.782284373
5.779241839
5.776200941
5.773161708
5.770124269
5.767088916
5.764056131
5.761026721
5.7580019
5.754983456
5.751974112
5.74897771
5.745999585
5.743047111
5.740130372
5.737263
5.734463227
5.731755182
5.729170461
5.726749959
5.724545962
5.722624407
5.721067166
5.719974115
5.7194646
5.71967781
5.720771401
5.722917664
5.72629653
5.731084909
5.737442271
5.74549308
5.996843815
5.99354374
5.990247612
5.986955709
5.983668268
5.980385505
5.977107605
5.973834702
5.970566891
5.967304234
5.96404676
5.960794477
5.957547368
5.954305401
5.951068529
5.947836699
5.944609847
5.941387905
5.938170804
5.93495847
5.931750831
5.928547814
5.925349347
5.922155361
5.918965787
5.915780559
5.912599613
5.909422887
5.906250323
5.903081864
5.899917457
5.896757049
5.893600593
5.890448039
5.887299345
5.884154466
5.88101336
5.877875987
5.874742307
5.871612283
5.868485877
5.865363051
5.86224377
5.859127997
5.856015697
5.852906833
5.849801369
5.846699267
5.84360049
5.840504995
5.837412742
5.834323685
5.831237778
5.828154968
5.825075201
5.821998413
5.818924538
5.815853501
5.812785218
5.809719597
5.806656535
5.803595918
5.800537622
5.797481509
5.794427432
5.791375233
5.788324744
5.785275797
5.782228226
5.779181878
5.776136637
5.773092437
5.770049315
5.767007442
5.763967211
5.760929259
5.757894645
5.754864981
5.751842715
5.748831436
5.745836159
5.742863848
5.739924086
5.737029877
5.734198644
5.731453454
5.728824484
5.726350727
5.724081897
5.722080454
5.720423608
5.719205041
5.718536031
5.718545491
5.719378384
5.721191904
5.72414887
5.728407982
5.734110972
5.741367277
5.996843592
5.993543274
5.990246885
5.986954698
5.983666948
5.980383851
5.977105591
5.973832306
5.970564096
5.967301024
5.964043126
5.960790412
5.95754287
5.954300469
5.951063165
5.947830906
5.944603629
5.941381268
5.938163751
5.934951007
5.931742963
5.928539546
5.925340683
5.922146304
5.918956341
5.915770726
5.912589396
5.909412288
5.906239344
5.903070506
5.89990572
5.896744935
5.893588099
5.890435167
5.887286091
5.884140829
5.880999337
5.877861575
5.874727503
5.871597082
5.868470273
5.865347039
5.862227343
5.859111148
5.855998416
5.852889111
5.849783194
5.846680627
5.843581368
5.840485374
5.837392601
5.834303002
5.831216523
5.82813311
5.825052702
5.821975229
5.818900619
5.815828786
5.81275964
5.809693075
5.806628977
5.803567218
5.800507655
5.797450133
5.794394479
5.791340509
5.788288026
5.785236826
5.7821867
5.779137449
5.776088896
5.773040913
5.76999345
5.76694659
5.763900626
5.760856113
5.757813999
5.754775754
5.751743627
5.748720998
5.745712652
5.742725256
5.739768021
5.736853494
5.733998512
5.731225367
5.728563214
5.726049677
5.723732628
5.721672047
5.719941831
5.718631293
5.717846048
5.717707846
5.718352867
5.719927935
5.722584219
5.726468131
5.731709553
5.738408006
5.996843448
5.993542973
5.990246415
5.986954044
5.983666094
5.98038278
5.977104285
5.973830752
5.97056228
5.967298937
5.964040761
5.960787765
5.957539938
5.954297252
5.951059664
5.947827123
5.944599567
5.941376929
5.93815914
5.934946127
5.931737816
5.928534136
5.925335013
5.922140377
5.918950159
5.915764292
5.912582711
5.909405354
5.906232162
5.903063077
5.899898045
5.896737013
5.893579931
5.890426752
5.887277429
5.884131918
5.880990175
5.877852161
5.874717834
5.871587155
5.868460085
5.865336586
5.862216621
5.859100152
5.85598714
5.852877548
5.849771337
5.846668467
5.843568894
5.840472575
5.837379463
5.834289508
5.831202655
5.828118846
5.825038016
5.821960092
5.818884995
5.815812637
5.812742918
5.809675727
5.806610939
5.803548418
5.800488009
5.797429543
5.794372832
5.791317675
5.788263853
5.78521114
5.782159298
5.7791081
5.776057328
5.773006816
5.769956452
5.766906265
5.76385644
5.760807486
5.75776026
5.754716244
5.751677519
5.748647287
5.745630171
5.742632638
5.73966367
5.736735518
5.733864638
5.731072822
5.728388564
5.725848606
5.72349963
5.721400026
5.719621568
5.71825078
5.717389676
5.717155476
5.717678826
5.719100057
5.721563079
5.725206697
5.730153505
5.73649697
5.996843377
5.993542825
5.990246184
5.986953723
5.983665675
5.980382253
5.977103643
5.973829987
5.970561386
5.967297909
5.964039596
5.96078646
5.957538491
5.954295664
5.951057935
5.947825254
5.944597559
5.941374784
5.93815686
5.934943713
5.931735271
5.928531461
5.925332209
5.922137446
5.918947102
5.91576111
5.912579405
5.909401925
5.90622861
5.903059403
5.899894249
5.896733096
5.893575893
5.890422592
5.887273147
5.884127513
5.880985648
5.877847509
5.874713056
5.87158225
5.868455052
5.865331423
5.862211325
5.859094721
5.855981572
5.852871839
5.849765483
5.846662463
5.843562736
5.840466256
5.837372976
5.834282846
5.831195808
5.828111803
5.825030763
5.821952615
5.818877277
5.815804657
5.812734653
5.809667149
5.806602018
5.803539116
5.800478284
5.797419345
5.794362105
5.791306353
5.78825186
5.785198388
5.782145685
5.779093514
5.776041631
5.772989865
5.769938063
5.766886249
5.763834533
5.76078341
5.757733604
5.754686642
5.751644535
5.748610431
5.745588861
5.742586194
5.7396113
5.736676291
5.733797429
5.730996259
5.728300952
5.725747812
5.72338294
5.721263947
5.719461567
5.718060964
5.717162401
5.716880894
5.71734441
5.718690144
5.721058509
5.724584657
5.729387691
5.735558188
5.996843377
5.993542825
5.990246184
5.986953723
5.983665675
5.980382253
5.977103643
5.973829987
5.970561386
5.967297909
5.964039596
5.96078646
5.957538491
5.954295664
5.951057935
5.947825254
5.944597559
5.941374784
5.93815686
5.934943713
5.931735271
5.928531461
5.925332209
5.922137446
5.918947102
5.91576111
5.912579405
5.909401925
5.90622861
5.903059403
5.89989425
5.896733096
5.893575893
5.890422593
5.887273148
5.884127514
5.880985649
5.87784751
5.874713058
5.871582252
5.868455054
5.865331425
5.862211327
5.859094723
5.855981574
5.852871842
5.849765486
5.846662466
5.843562739
5.84046626
5.837372981
5.83428285
5.831195813
5.828111808
5.825030769
5.821952622
5.818877285
5.815804665
5.812734661
5.809667159
5.806602028
5.803539127
5.800478296
5.797419358
5.794362119
5.791306369
5.788251877
5.785198407
5.782145706
5.779093536
5.776041656
5.772989891
5.769938092
5.766886281
5.763834568
5.760783448
5.757733646
5.754686689
5.751644587
5.748610489
5.745588926
5.742586268
5.739611383
5.736676385
5.733797537
5.730996383
5.728301094
5.725747976
5.723383132
5.72126417
5.719461828
5.71806127
5.717162759
5.716881315
5.717344904
5.718690722
5.721059182
5.724585436
5.729388586
5.735559206
5.996843448
5.993542973
5.990246415
5.986954044
5.983666094
5.98038278
5.977104285
5.973830752
5.97056228
5.967298937
5.964040761
5.960787765
5.957539938
5.954297252
5.951059664
5.947827123
5.944599567
5.941376929
5.93815914
5.934946127
5.931737817
5.928534136
5.925335014
5.922140378
5.91895016
5.915764293
5.912582712
5.909405355
5.906232163
5.903063078
5.899898046
5.896737015
5.893579933
5.890426754
5.887277431
5.884131921
5.880990179
5.877852165
5.874717838
5.871587159
5.86846009
5.865336592
5.862216627
5.859100159
5.855987148
5.852877557
5.849771346
5.846668477
5.843568905
5.840472587
5.837379476
5.834289522
5.831202671
5.828118863
5.825038034
5.821960112
5.818885018
5.815812661
5.812742944
5.809675755
5.80661097
5.803548452
5.800488046
5.797429583
5.794372876
5.791317723
5.788263905
5.785211197
5.782159359
5.779108167
5.776057401
5.773006896
5.769956539
5.76690636
5.763856545
5.760807602
5.757760388
5.754716386
5.751677677
5.748647463
5.745630368
5.74263286
5.739663919
5.736735802
5.733864961
5.731073192
5.72838899
5.725849098
5.723500202
5.721400694
5.719622349
5.718251697
5.717390753
5.717156742
5.717680312
5.719101797
5.721565106
5.725209045
5.730156204
5.736500043
5.996843592
5.993543274
5.990246885
5.986954698
5.983666948
5.980383851
5.977105591
5.973832306
5.970564096
5.967301024
5.964043126
5.960790412
5.95754287
5.954300469
5.951063166
5.947830906
5.94460363
5.941381268
5.938163752
5.934951008
5.931742964
5.928539547
5.925340684
5.922146305
5.918956342
5.915770728
5.912589398
5.90941229
5.906239346
5.903070509
5.899905723
5.896744938
5.893588103
5.890435171
5.887286096
5.884140834
5.880999343
5.877861582
5.87472751
5.87159709
5.868470281
5.865347049
5.862227353
5.859111159
5.855998429
5.852889125
5.849783209
5.846680644
5.843581386
5.840485394
5.837392623
5.834303026
5.83121655
5.828133139
5.825052733
5.821975263
5.818900655
5.815828827
5.812759683
5.809693123
5.806629029
5.803567275
5.800507717
5.797450199
5.794394551
5.791340588
5.788288112
5.78523692
5.782186802
5.77913756
5.776089018
5.773041046
5.769993596
5.76694675
5.763900802
5.760856308
5.757814214
5.754775992
5.751743891
5.748721292
5.745712982
5.742725626
5.739768439
5.736853968
5.733999052
5.731225986
5.728563927
5.726050502
5.723733587
5.721673168
5.719943144
5.718632836
5.717847863
5.717709982
5.718355378
5.71993088
5.722587656
5.72647212
5.731714146
5.738413244
5.996843815
5.99354374
5.990247611
5.986955709
5.983668268
5.980385505
5.977107604
5.973834702
5.970566891
5.967304234
5.96404676
5.960794477
5.957547368
5.954305401
5.95106853
5.947836699
5.944609847
5.941387906
5.938170804
5.934958471
5.931750832
5.928547815
5.925349349
5.922155363
5.918965789
5.915780561
5.912599616
5.90942289
5.906250327
5.903081868
5.899917461
5.896757054
5.893600598
5.890448045
5.887299352
5.884154473
5.881013368
5.877875996
5.874742317
5.871612294
5.868485889
5.865363065
5.862243785
5.859128014
5.856015715
5.852906853
5.84980139
5.846699291
5.843600515
5.840505023
5.837412772
5.834323719
5.831237814
5.828155008
5.825075244
5.82199846
5.81892459
5.815853557
5.812785279
5.809719663
5.806656607
5.803595996
5.800537707
5.797481602
5.794427533
5.791375343
5.788324864
5.785275928
5.782228369
5.779182034
5.776136807
5.773092623
5.770049519
5.767007666
5.763967458
5.760929531
5.757894945
5.754865313
5.751843085
5.748831849
5.745836621
5.742864368
5.739924673
5.737030543
5.734199405
5.731454327
5.72882549
5.726351893
5.724083254
5.722082042
5.720425471
5.719207234
5.718538617
5.718548542
5.719381981
5.721196132
5.724153819
5.728413741
5.73411762
5.741374878
5.996844125
5.993544388
5.990248623
5.986957115
5.983670103
5.980387803
5.977110399
5.973838022
5.97057076
5.96730867
5.964051776
5.96080008
5.957553561
5.954312184
5.951075901
5.947844654
5.944618379
5.941397009
5.938180472
5.934968697
5.931761611
5.928559141
5.925361217
5.922167769
5.918978729
5.915794032
5.912613614
5.909437414
5.906265374
5.903097439
5.899933554
5.896773669
5.893617737
5.890465709
5.887317543
5.884173196
5.881032626
5.877895793
5.87476266
5.871633189
5.868507342
5.865385085
5.862266381
5.859151196
5.856039496
5.852931245
5.849826409
5.846724954
5.843626842
5.840532037
5.8374405
5.834352192
5.831267068
5.828185085
5.825106193
5.822030338
5.818957462
5.8158875
5.812820382
5.809756029
5.806694355
5.803635265
5.800578657
5.79752442
5.794472435
5.79142258