/*--------------------------------*- C++ -*----------------------------------*\
  =========                 |
  \\      /  F ield         | OpenFOAM: The Open Source CFD Toolbox
   \\    /   O peration     | Website:  https://openfoam.org
    \\  /    A nd           | Version:  8
     \\/     M anipulation  |
\*---------------------------------------------------------------------------*/
FoamFile
{
    version     2.0;
    format      ascii;
    class       volScalarField;
    location    "3000";
    object      nut;
}
// * * * * * * * * * * * * * * * * * * * * * * * * * * * * * * * * * * * * * //

dimensions      [0 2 -1 0 0 0 0];

internalField   nonuniform List<scalar> 
40000
(
7.854357284e-05
8.850783248e-05
9.77814273e-05
0.000106451219
0.000114577059
0.0001222032501
0.0001293644142
0.0001360891142
0.0001424020251
0.0001483251972
0.0001538788271
0.000159081746
0.000163951739
0.0001685057548
0.0001727600343
0.0001767301893
0.0001804312513
0.0001838777028
0.0001870834926
0.000190062042
0.0001928262478
0.0001953884864
0.0001977606143
0.0001999539689
0.0002019793715
0.0002038471352
0.0002055670733
0.0002071485082
0.0002086002819
0.0002099307685
0.0002111478884
0.0002122591239
0.0002132715344
0.0002141917714
0.0002150260942
0.0002157803868
0.0002164601756
0.0002170706469
0.0002176166626
0.000218102776
0.0002185332491
0.0002189120686
0.0002192429616
0.0002195294098
0.0002197746645
0.0002199817596
0.0002201535249
0.000220292599
0.0002204014406
0.0002204823402
0.0002205374309
0.0002205686987
0.0002205779929
0.000220567035
0.0002205374267
0.0002204906586
0.0002204281172
0.0002203510924
0.0002202607841
0.0002201583085
0.0002200447047
0.0002199209407
0.0002197879191
0.0002196464819
0.000219497416
0.0002193414578
0.0002191792976
0.0002190115848
0.0002188389314
0.0002186619172
0.0002184810933
0.000218296987
0.0002181101055
0.000217920941
0.0002177299777
0.0002175376973
0.0002173445845
0.0002171511322
0.00021695785
0.0002167652733
0.0002165739734
0.0002163845707
0.0002161977484
0.0002160142706
0.0002158350065
0.0002156609633
0.0002154933204
0.0002153334763
0.0002151830261
0.0002150369526
0.0002148863318
0.0002147301985
0.000214568939
0.0002144008956
0.000214222561
0.0002140270187
0.0002137994457
0.0002135155014
0.0002130886818
0.0002124911256
0.001548402717
0.001165823146
0.0009553015504
0.0008194611528
0.0007234839805
0.0006516665816
0.0005957682419
0.000550987999
0.0005143282802
0.0004838046286
0.0004580466851
0.0004360693835
0.0004171462476
0.000400727922
0.0003863863734
0.0003737857501
0.0003626576202
0.0003527841964
0.0003439868176
0.0003361173173
0.0003290521906
0.0003226877256
0.00031693557
0.0003117204954
0.0003069782455
0.000302653647
0.0002986990387
0.0002950731059
0.0002917399151
0.000288668172
0.0002858305942
0.0002832032787
0.0002807651913
0.0002784978098
0.0002763848001
0.0002744117855
0.000272566092
0.0002708364607
0.0002692128934
0.0002676865394
0.000266249563
0.0002648950114
0.0002636167058
0.0002624091509
0.0002612674599
0.0002601872756
0.0002591647458
0.0002581963828
0.0002572791299
0.0002564102485
0.0002555873012
0.0002548081204
0.0002540707784
0.0002533735588
0.0002527149331
0.0002520935412
0.0002515081757
0.0002509577645
0.0002504413551
0.000249958107
0.000249507282
0.0002490882316
0.000248700387
0.0002483432512
0.0002480163927
0.0002477194394
0.0002474520729
0.0002472140234
0.0002470050661
0.0002468250138
0.0002466737174
0.0002465510678
0.0002464570015
0.0002463915224
0.0002463546839
0.0002463465332
0.000246367141
0.0002464166243
0.000246495151
0.0002466029434
0.0002467402866
0.0002469075308
0.0002471051077
0.0002473335054
0.0002475934042
0.0002478856802
0.0002482112161
0.0002485715295
0.000248975281
0.000249419514
0.0002498878811
0.0002503780096
0.0002508856746
0.0002514044182
0.0002519220517
0.0002524189952
0.0002528724686
0.0002532274557
0.0002534555132
0.0002535578355
0.002398410515
0.002318231566
0.002224486205
0.002125376862
0.002025943647
0.001929192702
0.001836805018
0.001749607368
0.00166790532
0.00159168501
0.001520754859
0.001454824894
0.00139356596
0.001336637931
0.001283697786
0.001234421863
0.001188509337
0.001145682516
0.001105687089
0.001068290037
0.001033280003
0.001000465893
0.0009696734823
0.0009407444385
0.0009135351869
0.0008879154141
0.0008637664936
0.000840980308
0.0008194581985
0.0007991102929
0.0007798545928
0.0007616158754
0.0007443248311
0.0007279178653
0.0007123359626
0.0006975251012
0.0006834359298
0.0006700225391
0.0006572424805
0.0006450566528
0.0006334289501
0.0006223259308
0.0006117165737
0.0006015720935
0.0005918657596
0.0005825727048
0.0005736698483
0.0005651357258
0.0005569501763
0.0005490945289
0.0005415513903
0.0005343046064
0.0005273391278
0.0005206408515
0.0005141965645
0.0005079939079
0.0005020213308
0.0004962679523
0.000490723556
0.0004853786329
0.0004802243382
0.0004752524229
0.0004704551876
0.0004658254517
0.0004613565258
0.0004570421862
0.0004528766533
0.0004488545715
0.0004449709954
0.0004412213683
0.0004376015228
0.0004341076217
0.0004307360688
0.0004274838191
0.0004243489448
0.0004213294285
0.0004184236397
0.0004156304552
0.0004129493134
0.0004103802785
0.0004079241426
0.0004055826052
0.0004033584696
0.0004012553728
0.0003992783976
0.0003974339805
0.0003957355987
0.0003942353817
0.0003928692244
0.0003915934447
0.0003904156209
0.0003893400417
0.0003883853636
0.0003875641995
0.0003869194373
0.0003865064841
0.0003864118943
0.0003867889635
0.0003878136307
0.0003897792581
0.002446393656
0.002440142439
0.00242988241
0.002415540252
0.002397286682
0.002375440952
0.00235040357
0.002322608507
0.002292492709
0.002260475113
0.002226945825
0.002192259622
0.002156731384
0.00212063731
0.002084217942
0.002047680108
0.002011199586
0.001974924287
0.00193897752
0.001903460358
0.001868455359
0.001834029685
0.001800236096
0.001767115208
0.001734697471
0.001703004779
0.001672051631
0.001641846316
0.001612391697
0.001583687027
0.001555728928
0.001528510221
0.001502021095
0.001476249996
0.001451183621
0.001426807522
0.001403107039
0.001380065977
0.001357667702
0.001335895565
0.001314732772
0.001294162414
0.001274167552
0.001254731369
0.001235837244
0.001217468805
0.001199609868
0.001182244591
0.001165357645
0.001148933931
0.001132958978
0.001117418644
0.001102299174
0.001087587265
0.001073269848
0.001059334494
0.00104576878
0.001032561013
0.001019699905
0.0010071747
0.0009949751427
0.0009830914283
0.000971514201
0.0009602345606
0.0009492440662
0.0009385347428
0.0009280990933
0.0009179301125
0.0009080213177
0.0008983666967
0.0008889610226
0.0008797995159
0.0008708778745
0.0008621926123
0.0008537417516
0.0008455237055
0.0008375378909
0.0008297849251
0.0008222667845
0.0008149871264
0.0008079511946
0.0008011670231
0.0007946430334
0.0007883934696
0.0007824351099
0.0007768283103
0.0007716191962
0.0007666094369
0.0007618184331
0.0007572671976
0.0007529891577
0.0007490371503
0.0007454545384
0.0007423282897
0.0007397233134
0.0007377681533
0.0007366512827
0.0007366376332
0.0007380837781
0.0007415036073
0.002448615677
0.002447967412
0.002446891259
0.002445234788
0.002442863259
0.002439664738
0.002435552004
0.002430462354
0.002424356161
0.002417214631
0.002409037214
0.002399838919
0.002389647491
0.002378500811
0.002366444775
0.002353531302
0.002339816518
0.002325359193
0.002310219446
0.002294457618
0.002278133464
0.002261305594
0.002244030814
0.002226363704
0.00220835631
0.002190058022
0.002171515387
0.002152772213
0.002133869614
0.002114845465
0.002095734654
0.002076569737
0.002057380806
0.002038195454
0.002019038923
0.001999934016
0.001980901473
0.001961960446
0.001943128213
0.001924420208
0.001905850239
0.001887430633
0.001869172352
0.001851085091
0.001833177375
0.001815456651
0.001797929357
0.001780600991
0.001763476204
0.001746558779
0.001729851501
0.001713357381
0.001697078761
0.001681017131
0.001665173873
0.001649549585
0.001634145478
0.001618961246
0.001603996555
0.001589251006
0.001574724036
0.001560414929
0.001546322869
0.001532446979
0.001518786374
0.001505340199
0.001492107679
0.001479088169
0.001466281203
0.001453686508
0.001441304293
0.001429135079
0.001417179839
0.001405440194
0.001393918663
0.001382618557
0.001371544206
0.001360701226
0.00135009682
0.00133974014
0.001329643057
0.001319820435
0.001310294124
0.001301085892
0.0012922723
0.001283808145
0.001275603957
0.001267680071
0.001260063525
0.001252789653
0.001245904541
0.001239468264
0.00123356406
0.001228297573
0.001223824706
0.001220346819
0.001218137372
0.001217573328
0.001219141955
0.001223451657
0.002448720188
0.002448431337
0.00244810709
0.00244772393
0.002447254165
0.002446667245
0.002445930975
0.002445012704
0.002443880376
0.002442503396
0.002440853289
0.002438904193
0.00243663321
0.002434020616
0.002431049958
0.002427708072
0.002423985017
0.002419873957
0.002415370998
0.002410474978
0.002405187256
0.002399511481
0.002393453357
0.002387020393
0.002380221683
0.002373067676
0.002365569975
0.002357741143
0.00234959453
0.002341144055
0.002332404022
0.002323389049
0.002314113959
0.002304593653
0.002294843014
0.002284876793
0.002274709551
0.002264355671
0.002253829275
0.002243144142
0.00223231367
0.002221350851
0.002210268255
0.002199078016
0.002187791815
0.002176420882
0.002164975985
0.00215346744
0.002141905115
0.002130298538
0.002118656705
0.002106987978
0.002095300467
0.002083601909
0.00207189973
0.002060200801
0.002048511689
0.00203683894
0.002025188655
0.002013566581
0.002001978205
0.001990428774
0.001978923328
0.001967466737
0.001956063733
0.001944718943
0.001933436931
0.001922222239
0.00191107944
0.001900013188
0.001889028319
0.001878129896
0.001867323292
0.001856614317
0.001846009359
0.001835515502
0.001825140691
0.001814893944
0.001804785627
0.001794827692
0.001785034241
0.001775420899
0.001766008514
0.001756855728
0.001747924817
0.001739183613
0.00173065355
0.001722361384
0.001714341002
0.001706635665
0.001699301883
0.001692413811
0.001686069578
0.00168039728
0.001675562892
0.001671783578
0.00166934466
0.001668612806
0.001670031325
0.001674091362
0.002448724355
0.002448456406
0.002448186182
0.002447911197
0.002447627942
0.002447331831
0.002447017158
0.002446677158
0.002446304134
0.002445889608
0.002445424472
0.002444899143
0.002444303728
0.002443628195
0.002442862508
0.00244199677
0.002441021343
0.00243992696
0.002438704823
0.002437346679
0.002435844889
0.002434192469
0.002432383135
0.00243041132
0.002428272191
0.002425961649
0.002423476324
0.002420813562
0.002417971399
0.002414948544
0.002411744337
0.002408358727
0.00240479223
0.002401045895
0.002397121267
0.002393020347
0.002388745557
0.002384299701
0.002379685938
0.002374907731
0.002369968821
0.002364873189
0.002359625028
0.002354228709
0.002348688755
0.002343009818
0.002337196651
0.00233125409
0.002325187031
0.002319000426
0.002312699246
0.002306288438
0.002299772945
0.002293157701
0.002286447623
0.002279647584
0.002272762405
0.002265796928
0.002258755965
0.002251644274
0.002244466567
0.002237227522
0.002229931787
0.002222583987
0.002215188746
0.002207750695
0.002200274495
0.002192764862
0.002185226595
0.002177664612
0.002170083996
0.002162490048
0.002154888342
0.002147284809
0.002139685831
0.002132098346
0.002124529978
0.0021169892
0.002109485534
0.002102029774
0.002094634346
0.002087314259
0.002080102521
0.002072985802
0.002065952842
0.002059021116
0.002052212078
0.002045552574
0.002039076473
0.002032826783
0.002026858925
0.002021244894
0.002016078398
0.002011480901
0.002007608362
0.002004659125
0.00200288219
0.002002581906
0.002004109036
0.002007827964
0.002448723901
0.002448456494
0.002448189291
0.0024479221
0.002447654589
0.002447386259
0.002447116377
0.002446843939
0.002446567662
0.002446285977
0.002445997027
0.002445698666
0.002445388463
0.002445063731
0.002444721534
0.002444358717
0.002443971927
0.002443557649
0.002443112232
0.00244263193
0.002442112929
0.002441551378
0.002440943426
0.002440285245
0.002439573066
0.002438803196
0.002437972051
0.002437076168
0.002436112231
0.002435077085
0.002433967752
0.002432781443
0.002431515568
0.002430167738
0.002428735772
0.002427217703
0.00242561178
0.002423916464
0.00242213043
0.002420252562
0.002418281955
0.002416217902
0.0024140599
0.002411807634
0.002409460974
0.002407019968
0.002404484836
0.002401855956
0.002399133866
0.002396319247
0.002393412919
0.002390415834
0.002387329064
0.002384153798
0.002380891335
0.002377543079
0.00237411053
0.002370595287
0.002366999046
0.002363323587
0.002359570777
0.002355742571
0.002351841008
0.002347868216
0.002343826416
0.002339717928
0.002335545184
0.002331310734
0.002327017267
0.002322667628
0.002318264849
0.002313812176
0.002309313113
0.002304771471
0.002300191432
0.002295577622
0.002290935209
0.00228627002
0.00228158869
0.002276898853
0.00227220955
0.002267535722
0.002262880705
0.00225823797
0.002253619608
0.002249040406
0.002244518715
0.00224007766
0.002235746648
0.002231563304
0.002227576147
0.00222384806
0.002220460375
0.002217517449
0.00221515128
0.002213525856
0.002212840634
0.002213329977
0.002215252169
0.00221886153
0.00244872341
0.002448455533
0.002448188018
0.002447920895
0.002447654164
0.00244738781
0.00244712178
0.002446855961
0.002446590179
0.002446324197
0.002446057713
0.002445790348
0.002445521641
0.002445251048
0.002444977931
0.002444701563
0.002444421118
0.002444135677
0.002443844224
0.002443545655
0.002443238776
0.002442922313
0.002442594911
0.002442255148
0.002441901538
0.002441532538
0.002441146559
0.002440741975
0.002440317126
0.002439870333
0.002439399907
0.002438904153
0.002438381383
0.002437829919
0.002437248101
0.002436634296
0.002435986904
0.002435304363
0.002434585156
0.002433827815
0.002433030926
0.002432193135
0.002431313151
0.002430389748
0.002429421771
0.002428408132
0.002427347821
0.002426239899
0.002425083502
0.002423877845
0.002422622216
0.002421315986
0.0024199586
0.002418549586
0.002417088546
0.002415575162
0.002414009194
0.002412390476
0.002410718924
0.002408994528
0.002407217361
0.002405387576
0.002403505409
0.002401571184
0.002399585313
0.002397548302
0.002395460761
0.002393323407
0.002391137079
0.002388902749
0.002386621541
0.00238429475
0.002381923875
0.002379510646
0.002377057073
0.002374565497
0.002372038663
0.002369479802
0.002366892748
0.002364282084
0.002361653429
0.002359014531
0.002356360847
0.002353699667
0.002351040135
0.002348393771
0.00234577521
0.002343203224
0.002340702041
0.002338302999
0.00233604666
0.002333985467
0.00233218678
0.002330736111
0.002329740138
0.002329328948
0.002329656583
0.002330897782
0.002333237452
0.002336849443
0.002448723043
0.002448454768
0.002448186847
0.002447919335
0.002447652268
0.002447385679
0.00244711959
0.002446854
0.002446588894
0.002446324239
0.002446059988
0.00244579608
0.002445532434
0.002445268951
0.00244500551
0.002444741967
0.002444478149
0.002444213856
0.002443948856
0.002443682886
0.002443415649
0.002443146812
0.002442876008
0.002442602833
0.002442326847
0.002442047575
0.002441764505
0.002441477091
0.002441184755
0.002440886885
0.002440582841
0.002440271957
0.002439953538
0.002439626866
0.002439291203
0.002438945789
0.002438589849
0.002438222595
0.002437843225
0.002437450929
0.00243704489
0.002436624291
0.002436188311
0.002435736134
0.002435266949
0.002434779949
0.002434274341
0.002433749339
0.002433204174
0.002432638094
0.002432050361
0.002431440262
0.002430807105
0.002430150224
0.002429468977
0.00242876275
0.002428030961
0.002427273055
0.00242648851
0.002425676839
0.002424837593
0.00242397036
0.002423074775
0.002422150514
0.002421197305
0.002420214928
0.002419203223
0.002418162096
0.002417091524
0.002415991568
0.002414862387
0.002413704249
0.002412517554
0.002411302857
0.002410060901
0.002408792661
0.002407499388
0.002406182685
0.002404844592
0.002403487746
0.002402116602
0.002400729517
0.002399330588
0.00239792515
0.00239652014
0.002395124576
0.002393750194
0.002392412303
0.002391130884
0.002389931947
0.002388849194
0.002387926013
0.002387217679
0.002386793545
0.002386738848
0.002387155553
0.002388161408
0.002389885882
0.002392461142
0.002396006388
0.002448722764
0.002448454186
0.002448185945
0.002447918098
0.002447650689
0.002447383757
0.002447117331
0.002446851425
0.002446586044
0.002446321185
0.002446056839
0.002445792992
0.002445529625
0.002445266714
0.002445004233
0.002444742146
0.002444480416
0.002444218996
0.002443957833
0.002443696864
0.002443436021
0.002443175221
0.002442914376
0.002442653381
0.002442392124
0.002442130477
0.002441868299
0.002441605438
0.002441341725
0.002441076976
0.002440810997
0.002440543574
0.002440274483
0.002440003483
0.002439730316
0.002439454713
0.002439176388
0.002438895043
0.002438610363
0.002438322021
0.00243802968
0.002437732988
0.002437431584
0.002437125096
0.002436813143
0.002436495336
0.002436171278
0.002435840565
0.002435502788
0.002435157533
0.002434804384
0.002434442922
0.002434072727
0.00243369338
0.002433304462
0.002432905557
0.002432496254
0.002432076144
0.002431644824
0.0024312019
0.002430746985
0.002430279704
0.002429799698
0.002429306619
0.002428800141
0.002428279959
0.002427745793
0.002427197391
0.002426634539
0.002426057067
0.002425464855
0.002424857848
0.002424236067
0.002423599633
0.002422948789
0.00242228393
0.002421605649
0.00242091479
0.002420212523
0.002419500499
0.00241878008
0.002418052669
0.002417321418
0.002416590555
0.002415865708
0.002415154335
0.002414466281
0.002413814493
0.002413215926
0.002412692648
0.002412273151
0.002411993833
0.002411900566
0.002412050126
0.002412511162
0.002413364228
0.00241470022
0.002416616379
0.002419208873
0.002422561224
0.00244872255
0.002448453738
0.002448185246
0.002447917134
0.002447649448
0.002447382226
0.002447115501
0.00244684929
0.002446583603
0.002446318442
0.002446053804
0.002445789684
0.002445526072
0.002445262955
0.002445000321
0.002444738154
0.002444476438
0.002444215154
0.002443954283
0.002443693804
0.002443433693
0.002443173924
0.002442914471
0.002442655302
0.002442396385
0.002442137683
0.002441879156
0.00244162076
0.002441362448
0.002441104167
0.002440845862
0.00244058747
0.002440328925
0.002440070155
0.002439811082
0.002439551623
0.002439291686
0.002439031175
0.002438769985
0.002438508007
0.002438245123
0.002437981207
0.00243771613
0.002437449754
0.002437181933
0.002436912517
0.002436641348
0.002436368262
0.002436093088
0.00243581565
0.002435535767
0.002435253252
0.002434967913
0.002434679553
0.002434387974
0.002434092969
0.002433794332
0.002433491852
0.002433185316
0.002432874508
0.002432559212
0.002432239213
0.002431914297
0.002431584252
0.002431248872
0.002430907956
0.002430561314
0.002430208766
0.00242985015
0.002429485329
0.002429114186
0.002428736646
0.002428352681
0.002427962325
0.002427565699
0.002427163032
0.0024267547
0.002426341272
0.002425923572
0.002425502767
0.002425079789
0.002424656612
0.002424235932
0.0024238214
0.002423417917
0.002423032021
0.002422672364
0.00242235033
0.002422080786
0.002421882983
0.002421781582
0.002421807776
0.002422000389
0.002422406788
0.002423083314
0.002424094868
0.002425513162
0.002427413094
0.002429866722
0.002432934595
0.002448722382
0.002448453387
0.002448184699
0.002447916377
0.002447648468
0.002447381012
0.002447114042
0.002446847577
0.002446581631
0.002446316208
0.002446051307
0.002445786926
0.002445523056
0.002445259687
0.002444996809
0.00244473441
0.002444472476
0.002444210993
0.002443949947
0.002443689323
0.002443429106
0.002443169282
0.002442909834
0.002442650747
0.002442392005
0.00244213359
0.002441875487
0.002441617677
0.002441360143
0.002441102864
0.002440845822
0.002440588994
0.002440332361
0.002440075897
0.002439819579
0.002439563379
0.002439307269
0.002439051218
0.002438795192
0.002438539157
0.002438283074
0.002438026902
0.002437770597
0.002437514115
0.002437257404
0.002437000413
0.002436743086
0.002436485365
0.002436227187
0.002435968489
0.0024357092
0.002435449249
0.002435188562
0.002434927061
0.002434664663
0.002434401286
0.00243413684
0.002433871235
0.002433604376
0.002433336167
0.002433066508
0.002432795298
0.002432522433
0.002432247811
0.002431971328
0.002431692882
0.002431412374
0.002431129713
0.002430844812
0.002430557602
0.002430268026
0.002429976059
0.002429681706
0.002429385011
0.002429086088
0.002428785139
0.002428482485
0.002428178607
0.002427874201
0.002427570168
0.002427267722
0.002426968664
0.002426675453
0.002426391418
0.002426121029
0.002425870235
0.002425646898
0.002425461316
0.002425326862
0.002425260726
0.002425284732
0.002425426186
0.002425718662
0.002426202554
0.002426925184
0.002427940154
0.002429305603
0.002431081024
0.002433322342
0.002436075271
0.00244872225
0.002448453111
0.002448184269
0.002447915781
0.002447647694
0.002447380049
0.00244711288
0.002446846208
0.002446580049
0.002446314409
0.002446049289
0.002445784688
0.002445520598
0.002445257013
0.00244499392
0.002444731309
0.002444469166
0.002444207478
0.002443946233
0.002443685415
0.002443425011
0.002443165008
0.002442905391
0.002442646148
0.002442387266
0.002442128731
0.002441870531
0.002441612654
0.002441355088
0.00244109782
0.00244084084
0.002440584135
0.002440327695
0.002440071508
0.002439815562
0.002439559846
0.002439304348
0.002439049055
0.002438793954
0.002438539032
0.002438284273
0.002438029664
0.002437775188
0.002437520828
0.002437266566
0.002437012385
0.002436758263
0.00243650418
0.002436250113
0.002435996039
0.002435741931
0.002435487763
0.002435233508
0.002434979134
0.00243472461
0.002434469902
0.002434214974
0.002433959789
0.002433704306
0.002433448483
0.002433192275
0.002432935636
0.002432678519
0.002432420874
0.002432162651
0.0024319038
0.002431644274
0.002431384026
0.002431123017
0.002430861214
0.002430598601
0.002430335178
0.002430070975
0.00242980606
0.002429540552
0.002429274637
0.002429008615
0.00242874293
0.002428478223
0.00242821533
0.002427955475
0.002427700346
0.002427452242
0.002427214268
0.002426990586
0.002426786724
0.002426609957
0.002426469773
0.002426378421
0.002426351528
0.002426408764
0.0024265745
0.002426878367
0.00242735558
0.002428046839
0.002428997581
0.002430256321
0.002431871858
0.002433889213
0.002436344369
0.002448722147
0.002448452894
0.002448183931
0.002447915312
0.002447647084
0.002447379289
0.00244711196
0.002446845121
0.002446578789
0.002446312972
0.002446047673
0.002445782891
0.002445518622
0.002445254857
0.002444991586
0.002444728799
0.002444466482
0.002444204623
0.002443943207
0.002443682222
0.002443421653
0.002443161486
0.002442901709
0.002442642309
0.002442383272
0.002442124585
0.002441866239
0.00244160822
0.002441350518
0.002441093122
0.002440836023
0.00244057921
0.002440322675
0.002440066408
0.002439810401
0.002439554646
0.002439299134
0.002439043857
0.002438788807
0.002438533975
0.002438279355
0.002438024936
0.002437770711
0.002437516672
0.002437262808
0.002437009112
0.002436755574
0.002436502183
0.00243624893
0.002435995803
0.00243574279
0.002435489879
0.002435237058
0.002434984311
0.002434731623
0.002434478978
0.002434226358
0.002433973743
0.002433721112
0.002433468443
0.002433215711
0.002432962889
0.00243270995
0.002432456863
0.002432203599
0.002431950126
0.002431696412
0.002431442429
0.002431188151
0.002430933557
0.00243067864
0.002430423407
0.002430167891
0.002429912154
0.002429656312
0.002429400542
0.002429145107
0.002428890418
0.002428637061
0.002428385855
0.002428137952
0.002427894939
0.002427658981
0.002427433006
0.002427220929
0.002427027945
0.00242686087
0.002426728557
0.002426642381
0.002426616759
0.002426669709
0.002426823365
0.002427104385
0.002427544122
0.002428178402
0.00242904674
0.002430190781
0.002431651839
0.002433467456
0.002435667119
0.002448722066
0.002448452726
0.002448183668
0.002447914948
0.00244764661
0.002447378696
0.002447111241
0.00244684427
0.002446577801
0.002446311842
0.002446046399
0.002445781473
0.002445517058
0.002445253149
0.002444989735
0.002444726806
0.002444464348
0.002444202351
0.002443940798
0.002443679678
0.002443418975
0.002443158676
0.002442898769
0.002442639238
0.002442380073
0.00244212126
0.002441862787
0.002441604643
0.002441346818
0.0024410893
0.00244083208
0.002440575148
0.002440318496
0.002440062115
0.002439805996
0.002439550133
0.002439294517
0.00243903914
0.002438783997
0.002438529079
0.00243827438
0.002438019894
0.002437765612
0.002437511529
0.002437257638
0.002437003932
0.002436750403
0.002436497046
0.002436243851
0.002435990812
0.002435737919
0.002435485165
0.00243523254
0.002434980032
0.002434727632
0.002434475328
0.002434223104
0.002433970947
0.002433718841
0.002433466766
0.002433214703
0.00243296263
0.002432710523
0.002432458357
0.002432206102
0.002431953731
0.002431701214
0.002431448521
0.002431195625
0.002430942504
0.002430689142
0.002430435542
0.002430181722
0.002429927737
0.002429673678
0.002429419706
0.002429166059
0.002428913098
0.002428661369
0.002428411647
0.002428165013
0.002427922965
0.002427687553
0.002427461555
0.002427248687
0.002427053874
0.002426883567
0.002426746124
0.002426652234
0.002426615385
0.002426652327
0.002426783502
0.002427033336
0.002427430316
0.002428006694
0.002428797693
0.002429840053
0.00243116982
0.002432819369
0.002434813786
0.002448722006
0.002448452599
0.00244818347
0.002447914673
0.002447646251
0.002447378247
0.002447110696
0.002446843623
0.002446577047
0.002446310979
0.002446045425
0.002445780386
0.002445515859
0.002445251837
0.002444988311
0.002444725271
0.002444462705
0.002444200599
0.00244393894
0.002443677714
0.002443416908
0.002443156507
0.002442896498
0.002442636867
0.002442377602
0.00244211869
0.002441860119
0.002441601878
0.002441343956
0.002441086341
0.002440829025
0.002440571998
0.00244031525
0.002440058774
0.00243980256
0.002439546601
0.00243929089
0.002439035419
0.002438780181
0.002438525169
0.002438270377
0.002438015797
0.002437761423
0.00243750725
0.002437253269
0.002436999476
0.002436745862
0.002436492422
0.002436239147
0.002435986031
0.002435733066
0.002435480243
0.002435227553
0.002434974986
0.002434722531
0.002434470176
0.002434217909
0.002433965713
0.002433713572
0.002433461468
0.00243320938
0.002432957285
0.002432705158
0.00243245297
0.002432200692
0.002431948292
0.002431695734
0.002431442986
0.002431190011
0.002430936781
0.002430683269
0.002430429462
0.002430175369
0.002429921021
0.002429666501
0.002429411936
0.002429157542
0.002428903648
0.002428650752
0.002428399584
0.002428151169
0.002427906926
0.002427668812
0.002427439482
0.002427222497
0.00242702257
0.002426845872
0.002426700379
0.002426596261
0.002426546305
0.002426566316
0.002426675479
0.002426896581
0.002427256019
0.002427783469
0.00242851109
0.002429472156
0.002430699038
0.002432220554
0.002434058811
0.002448721962
0.002448452508
0.002448183328
0.002447914475
0.002447645993
0.002447377924
0.002447110303
0.002446843156
0.002446576503
0.002446310355
0.00244604472
0.002445779598
0.002445514988
0.002445250883
0.002444987275
0.002444724153
0.002444461507
0.002444199321
0.002443937584
0.002443676282
0.002443415399
0.002443154923
0.00244289484
0.002442635136
0.002442375798
0.002442116814
0.002441858172
0.00244159986
0.002441341867
0.002441084182
0.002440826796
0.002440569699
0.002440312881
0.002440056334
0.00243980005
0.002439544021
0.002439288239
0.002439032696
0.002438777386
0.002438522302
0.002438267436
0.002438012782
0.002437758334
0.002437504084
0.002437250027
0.002436996156
0.002436742463
0.002436488942
0.002436235585
0.002435982385
0.002435729334
0.002435476422
0.00243522364
0.002434970978
0.002434718423
0.002434465965
0.002434213587
0.002433961274
0.002433709008
0.002433456769
0.002433204535
0.00243295228
0.002432699976
0.002432447593
0.002432195097
0.002431942452
0.002431689618
0.002431436555
0.002431183221
0.002430929578
0.002430675591
0.002430421235
0.002430166501
0.002429911408
0.002429656016
0.002429400442
0.002429144879
0.002428889629
0.002428635154
0.002428382144
0.002428131578
0.00242788482
0.002427643752
0.002427410941
0.002427189829
0.002426984976
0.002426802348
0.002426649644
0.002426536664
0.002426475689
0.002426481854
0.002426573455
0.002426772127
0.002427102813
0.002427593402
0.002428273947
0.002429175363
0.002430327539
0.002431756912
0.00243348362
0.002448721934
0.002448452449
0.002448183236
0.002447914347
0.002447645826
0.002447377714
0.002447110048
0.002446842853
0.002446576149
0.002446309949
0.00244604426
0.002445779085
0.00244551442
0.002445250261
0.002444986598
0.002444723423
0.002444460724
0.002444198486
0.002443936698
0.002443675344
0.002443414412
0.002443153887
0.002442893755
0.002442634003
0.002442374618
0.002442115587
0.002441856898
0.002441598539
0.0024413405
0.00244108277
0.002440825338
0.002440568195
0.002440311332
0.002440054739
0.002439798409
0.002439542334
0.002439286505
0.002439030916
0.002438775559
0.002438520426
0.002438265512
0.00243801081
0.002437756311
0.002437502011
0.002437247902
0.002436993978
0.002436740231
0.002436486654
0.002436233239
0.00243597998
0.002435726866
0.002435473889
0.002435221039
0.002434968305
0.002434715674
0.002434463134
0.002434210669
0.002433958262
0.002433705893
0.002433453543
0.002433201186
0.002432948795
0.002432696342
0.002432443791
0.002432191108
0.002431938252
0.00243168518
0.002431431848
0.002431178208
0.002430924217
0.002430669833
0.002430415022
0.002430159765
0.002429904069
0.002429647974
0.002429391588
0.002429135086
0.002428878774
0.002428623079
0.002428368658
0.002428116457
0.002427867799
0.002427624523
0.002427389135
0.002427165002
0.002426956582
0.002426769707
0.002426611899
0.002426492716
0.002426424117
0.002426420804
0.002426500505
0.002426684125
0.002426995681
0.00242746194
0.002428111634
0.002428974206
0.002430078008
0.002431448011
0.00243310315
0.00244872192
0.00244845242
0.00244818319
0.002447914284
0.002447645744
0.002447377611
0.002447109922
0.002446842704
0.002446575975
0.00244630975
0.002446044034
0.002445778831
0.00244551414
0.002445249953
0.002444986264
0.002444723063
0.002444460337
0.002444198074
0.00244393626
0.002443674881
0.002443413924
0.002443153374
0.002442893218
0.002442633442
0.002442374034
0.00244211498
0.002441856268
0.002441597886
0.002441339825
0.002441082072
0.002440824617
0.002440567452
0.002440310566
0.002440053951
0.002439797598
0.0024395415
0.002439285649
0.002439030036
0.002438774656
0.0024385195
0.002438264562
0.002438009835
0.002437755312
0.002437500987
0.002437246852
0.002436992901