/*--------------------------------*- C++ -*----------------------------------*\
  =========                 |
  \\      /  F ield         | OpenFOAM: The Open Source CFD Toolbox
   \\    /   O peration     | Website:  https://openfoam.org
    \\  /    A nd           | Version:  8
     \\/     M anipulation  |
\*---------------------------------------------------------------------------*/
FoamFile
{
    version     2.0;
    format      ascii;
    class       volScalarField;
    location    "3000";
    object      omega;
}
// * * * * * * * * * * * * * * * * * * * * * * * * * * * * * * * * * * * * * //

dimensions      [0 0 -1 0 0 0 0];

internalField   nonuniform List<scalar> 
40000
(
99678.53782
112324.0388
124093.0269
135095.737
145408.1257
155086.417
164174.549
172708.7707
180720.3967
188237.4107
195285.4439
201888.3947
208068.8339
213848.271
219247.317
224285.7845
228982.75
233356.5929
237425.0154
241205.0503
244713.0648
247964.7656
250975.1996
253758.7549
256329.1647
258699.5172
260882.2663
262889.2429
264731.6685
266420.1702
267964.7998
269375.0531
270659.889
271827.7488
272886.576
273843.838
274706.5484
275481.2889
276174.2297
276791.1494
277337.4568
277818.2112
278238.1428
278601.6702
278912.9194
279175.7409
279393.7259
279570.2228
279708.3522
279811.0207
279880.9355
279920.617
279932.4122
279918.5056
279880.9302
279821.5774
279742.207
279644.456
279529.847
279399.7966
279255.6236
279098.5566
278929.7407
278750.2448
278561.0673
278363.1429
278157.3478
277944.5057
277725.3938
277500.7475
277271.2665
277037.6197
276800.451
276560.3852
276318.0363
276074.0159
275828.9391
275583.4315
275338.1398
275093.7434
274850.9675
274610.5991
274373.5055
274140.6564
273913.1548
273692.2789
273479.5256
273276.6696
273085.7352
272900.3571
272709.2077
272511.0627
272306.4119
272093.1522
271866.8325
271618.6756
271329.8703
270969.5278
270427.8704
269669.549
3889.908556
5202.545391
6407.16303
7551.32959
8660.871015
9750.390654
10828.81002
11902.10523
12974.07303
14047.15662
15122.713
16201.48167
17283.59823
18368.69272
19456.29716
20545.63118
21635.72494
22725.50597
23813.83273
24899.54994
25981.44959
27058.30429
28128.98508
29192.39106
30247.44188
31293.09738
32328.38461
33352.39996
34364.31373
35363.36157
36348.83481
37320.10289
38276.62769
39217.95046
40143.69442
41053.54207
41947.22663
42824.56287
43685.43366
44529.76902
45357.54473
46168.78576
46963.56493
47741.99886
48504.24368
49250.49266
49980.97583
50695.94025
51395.67747
52080.49635
52750.72094
53406.69037
54048.75864
54677.29542
55292.68333
55895.31425
56485.58742
57063.90892
57630.68708
58186.32553
58731.22109
59265.76382
59790.33545
60305.30654
60811.03382
61307.85764
61796.09898
62276.05623
62748.00157
63212.17684
63668.79007
64118.01348
64559.9808
64994.76414
65422.33656
65842.61447
66255.43075
66660.50863
67057.44164
67445.66944
67824.44688
68192.80297
68549.49311
68892.93579
69221.06675
69531.0773
69819.83293
70082.92022
70306.76142
70492.90165
70658.29725
70795.89196
70896.42215
70946.78031
70927.63031
70810.25135
70552.92998
70090.23151
69337.65599
68220.40376
2500.757893
2586.790067
2695.909345
2822.360113
2962.316452
3113.078182
3272.684668
3439.703199
3613.058843
3791.947338
3975.747627
4163.977237
4356.234212
4552.191138
4751.600898
4954.244876
5159.925213
5368.462545
5579.689789
5793.456329
6009.621908
6228.039508
6448.570387
6671.079443
6895.431682
7121.491138
7349.123826
7578.196483
7808.579304
8040.142268
8272.748734
8506.265154
8740.564532
8975.52184
9211.020926
9446.946902
9683.178336
9919.60705
10156.13158
10392.65153
10629.06896
10865.28998
11101.22528
11336.79005
11571.90382
11806.49162
12040.47975
12273.80282
12506.40057
12738.21453
12969.18964
13199.27369
13428.41807
13656.57904
13883.71718
14109.79684
14334.78592
14558.65647
14781.38325
15002.94118
15223.30536
15442.45144
15660.35509
15876.99105
16092.33226
16306.34882
16519.00675
16730.26656
16940.08143
17148.39548
17355.14026
17560.23532
17763.58913
17965.08786
18164.57192
18361.86496
18556.75161
18748.96869
18938.19545
19124.04004
19306.02582
19483.57241
19655.97728
19822.38018
19981.71126
20132.63791
20273.14996
20397.90933
20512.2999
20619.89183
20718.87413
20806.7061
20880.80371
20937.19272
20972.00571
20979.42395
20952.64549
20884.95343
20763.77161
20580.47131
2451.335424
2456.333053
2465.46811
2478.929111
2496.697356
2518.631535
2544.522088
2574.128034
2607.1983
2643.486164
2682.755103
2724.782856
2769.365783
2816.31788
2865.468553
2916.662174
2969.757377
3024.625811
3081.150712
3139.226872
3198.758062
3259.654665
3321.83498
3385.2241
3449.752759
3515.356565
3581.97576
3649.554727
3718.040124
3787.378129
3857.519371
3928.418797
4000.033997
4072.323847
4145.250078
4218.775084
4292.864799
4367.48759
4442.611402
4518.204424
4594.235876
4670.676222
4747.497073
4824.671179
4902.172354
4979.975251
5058.056044
5136.391551
5214.959184
5293.737493
5372.706918
5451.846078
5531.133544
5610.549754
5690.074897
5769.691284
5849.378355
5929.119847
6008.899986
6088.702138
6168.509175
6248.3036
6328.067302
6407.781286
6487.425429
6566.978172
6646.416114
6725.713565
6804.841933
6883.769615
6962.459585
7040.870761
7118.957159
7196.663886
7273.919566
7350.646689
7426.754253
7502.134223
7576.657722
7650.170526
7722.485338
7793.382575
7862.570199
7929.737876
7994.469998
8055.895421
8113.229442
8168.838844
8222.367295
8273.450503
8321.738119
8366.834176
8407.940018
8444.323096
8474.45511
8497.091629
8510.925529
8514.683081
8506.98526
8487.682675
2449.087672
2448.403109
2448.151694
2448.489174
2449.554855
2451.467059
2454.321491
2458.191883
2463.131737
2469.176638
2476.346615
2484.648444
2494.078275
2504.623821
2516.265876
2528.979755
2542.736708
2557.505122
2573.251447
2589.941042
2607.538696
2626.008913
2645.316453
2665.426657
2686.305691
2707.920575
2730.239413
2753.23117
2776.865631
2801.114179
2825.949678
2851.345665
2877.276584
2903.717984
2930.646468
2958.040003
2985.87761
3014.138625
3042.803249
3071.852727
3101.269149
3131.035348
3161.134846
3191.551834
3222.27114
3253.278206
3284.559078
3316.100428
3347.889434
3379.913659
3412.159469
3444.614378
3477.267164
3510.106658
3543.122507
3576.303392
3609.64157
3643.128023
3676.753108
3710.506892
3744.379435
3778.360776
3812.440816
3846.609195
3880.855184
3915.167587
3949.534559
3983.943439
4018.380533
4052.831014
4087.27793
4121.702675
4156.084366
4190.399036
4224.618673
4258.711357
4292.640194
4326.362054
4359.82631
4392.972871
4425.730627
4458.012131
4489.734745
4520.774027
4550.829512
4579.992191
4608.580828
4636.507063
4663.66568
4689.935319
4715.181314
4739.244348
4761.95147
4783.091916
4802.493429
4820.008304
4835.600168
4849.466587
4862.072352
4874.343878
2448.978473
2447.928025
2446.914718
2445.96232
2445.098936
2444.355671
2443.765244
2443.360823
2443.175077
2443.239404
2443.5833
2444.233886
2445.21564
2446.550252
2448.256528
2450.350362
2452.844811
2455.750234
2459.074457
2462.822957
2466.999057
2471.604101
2476.637662
2482.097749
2487.981002
2494.282855
2500.997706
2508.119052
2515.639578
2523.551398
2531.846258
2540.515491
2549.550051
2558.940637
2568.677781
2578.751961
2589.153643
2599.873201
2610.900985
2622.227439
2633.843138
2645.738792
2657.905256
2670.33354
2683.014825
2695.940469
2709.10202
2722.491211
2736.09995
2749.920136
2763.943918
2778.163941
2792.572842
2807.163349
2821.928269
2836.860829
2851.954507
2867.20235
2882.597676
2898.133982
2913.804814
2929.603727
2945.524252
2961.55984
2977.703815
2993.949328
3010.289289
3026.716296
3043.222537
3059.799702
3076.438784
3093.130002
3109.862616
3126.624689
3143.402791
3160.181761
3176.9444
3193.67104
3210.339035
3226.922299
3243.390351
3259.709964
3275.83819
3291.659513
3307.246549
3322.669186
3337.897469
3352.899099
3367.639399
3382.082621
3396.196506
3409.955299
3423.346721
3436.37851
3449.090795
3461.585948
3474.069575
3486.890073
3500.550908
3515.700458
2448.971952
2447.898095
2446.828131
2445.76461
2444.711175
2443.672606
2442.654739
2441.664397
2440.709306
2439.797978
2438.939564
2438.143687
2437.420289
2436.77949
2436.231435
2435.786154
2435.453445
2435.242768
2435.163164
2435.223183
2435.430825
2435.793497
2436.317976
2437.010402
2437.876261
2438.920391
2440.146987
2441.559608
2443.161197
2444.954117
2446.940195
2449.120741
2451.496559
2454.067984
2456.834914
2459.796857
2462.952956
2466.302
2469.842457
2473.57251
2477.490095
2481.592926
2485.878519
2490.344209
2494.98718
2499.80448
2504.793041
2509.94969
2515.271163
2520.754093
2526.395043
2532.190606
2538.137347
2544.23177
2550.470325
2556.849469
2563.365677
2570.0153
2576.794634
2583.699981
2590.72763
2597.873839
2605.134815
2612.506701
2619.985556
2627.567334
2635.247857
2643.022781
2650.887561
2658.837405
2666.867208
2674.971499
2683.14436
2691.37934
2699.669334
2708.006477
2716.382008
2724.786114
2733.207736
2741.6344
2750.05189
2758.443493
2766.769484
2775.055295
2783.326837
2791.574438
2799.788934
2807.962774
2816.091016
2824.17307
2832.216168
2840.239842
2848.281916
2856.406438
2864.713602
2873.353691
2882.544052
2892.583933
2903.853252
2916.782138
2448.970895
2447.894878
2446.820273
2445.747351
2444.676524
2443.608406
2442.543811
2441.483768
2440.429562
2439.382756
2438.345198
2437.319022
2436.306637
2435.310716
2434.334182
2433.380175
2432.452024
2431.553221
2430.68739
2429.858255
2429.069608
2428.325279
2427.629101
2426.984889
2426.396406
2425.867346
2425.401304
2425.001761
2424.672062
2424.415406
2424.234838
2424.13324
2424.113312
2424.177571
2424.328344
2424.567769
2424.897792
2425.320167
2425.836449
2426.448007
2427.156024
2427.961507
2428.865286
2429.868025
2430.970225
2432.172231
2433.474238
2434.876299
2436.378327
2437.9801
2439.681274
2441.481399
2443.379929
2445.37621
2447.469481
2449.658895
2451.943518
2454.322316
2456.794148
2459.357796
2462.01196
2464.755263
2467.586239
2470.503337
2473.504909
2476.589208
2479.754378
2482.998439
2486.319275
2489.714618
2493.182019
2496.718831
2500.322171
2503.988895
2507.715549
2511.49833
2515.333037
2519.215028
2523.139157
2527.099734
2531.090276
2535.09882
2539.128312
2543.19534
2547.298379
2551.436886
2555.612042
2559.827819
2564.092337
2568.419711
2572.83287
2577.367378
2582.076164
2587.0352
2592.349754
2598.161184
2604.653751
2612.057765
2620.64128
2630.68242
2448.970333
2447.893644
2446.818176
2445.744005
2444.671209
2443.599894
2442.530184
2441.462223
2440.396187
2439.332304
2438.270863
2437.212226
2436.156832
2435.105207
2434.057963
2433.015809
2431.979543
2430.950058
2429.92834
2428.915462
2427.912587
2426.920955
2425.941886
2424.976765
2424.02704
2423.094215
2422.179838
2421.285495
2420.412802
2419.563396
2418.73893
2417.941063
2417.171453
2416.431747
2415.723574
2415.048538
2414.408218
2413.80415
2413.237832
2412.710714
2412.224194
2411.779617
2411.378273
2411.021389
2410.710131
2410.445601
2410.228832
2410.060793
2409.942381
2409.874423
2409.857679
2409.89284
2409.980533
2410.121317
2410.315684
2410.564055
2410.866787
2411.224165
2411.636403
2412.103642
2412.625959
2413.203362
2413.83579
2414.523111
2415.265121
2416.061537
2416.911999
2417.816064
2418.7732
2419.782778
2420.844069
2421.956234
2423.118314
2424.329225
2425.587744
2426.892505
2428.241995
2429.634553
2431.068379
2432.541554
2434.051968
2435.596551
2437.186758
2438.824013
2440.510838
2442.25129
2444.051628
2445.92129
2447.874193
2449.930391
2452.118305
2454.477594
2457.062568
2459.945965
2463.222739
2467.013298
2471.465259
2476.751381
2483.059774
2490.572438
2448.969933
2447.892803
2446.816859
2445.74217
2444.668786
2443.596758
2442.526131
2441.456938
2440.389205
2439.322961
2438.258241
2437.195091
2436.133571
2435.07376
2434.015757
2432.959682
2431.905683
2430.853935
2429.804643
2428.758042
2427.714402
2426.674027
2425.637256
2424.604463
2423.576057
2422.552486
2421.534228
2420.521798
2419.515743
2418.516643
2417.525106
2416.541772
2415.567306
2414.602398
2413.647756
2412.70411
2411.772205
2410.852802
2409.946667
2409.05458
2408.177324
2407.315683
2406.470447
2405.642401
2404.832326
2404.040997
2403.269182
2402.517634
2401.787097
2401.078298
2400.391946
2399.728735
2399.089339
2398.474415
2397.884593
2397.32048
2396.78266
2396.271688
2395.788088
2395.332355
2394.904954
2394.506318
2394.136848
2393.796911
2393.486837
2393.206921
2392.957417
2392.738541
2392.550467
2392.393326
2392.267203
2392.172143
2392.108144
2392.075166
2392.073134
2392.101947
2392.161494
2392.251678
2392.372455
2392.523832
2392.70488
2392.921985
2393.177396
2393.474282
2393.817072
2394.211904
2394.667239
2395.194722
2395.810282
2396.53553
2397.399503
2398.440787
2399.709908
2401.271785
2403.207854
2405.617277
2408.616362
2412.334784
2416.906592
2422.454168
2448.969632
2447.892173
2446.815877
2445.740815
2444.667039
2443.594594
2442.523519
2441.453836
2440.385555
2439.318682
2438.253219
2437.189168
2436.126528
2435.065302
2434.005494
2432.947114
2431.890176
2430.8347
2429.780712
2428.728247
2427.677348
2426.62807
2425.580476
2424.534641
2423.490654
2422.448615
2421.408639
2420.370854
2419.335402
2418.302443
2417.272148
2416.244709
2415.220331
2414.199232
2413.18165
2412.167834
2411.158048
2410.152572
2409.151696
2408.155726
2407.164978
2406.17978
2405.200472
2404.227404
2403.260934
2402.30143
2401.349267
2400.404825
2399.468493
2398.54066
2397.621723
2396.71208
2395.812131
2394.92228
2394.042927
2393.174476
2392.317323
2391.471865
2390.638493
2389.817592
2389.009541
2388.214713
2387.433475
2386.666184
2385.913191
2385.174834
2384.451446
2383.743346
2383.050847
2382.374255
2381.713867
2381.069979
2380.442892
2379.832916
2379.240383
2378.66567
2378.109215
2377.571559
2377.053389
2376.555537
2376.079961
2375.629714
2375.20763
2374.817497
2374.464385
2374.155071
2373.898595
2373.706991
2373.596218
2373.587305
2373.707709
2373.992883
2374.487941
2375.249198
2376.345259
2377.857144
2379.876785
2382.502981
2385.833791
2389.954574
2448.969399
2447.891686
2446.815119
2445.739767
2444.665683
2443.592916
2442.521502
2441.451464
2440.382816
2439.315563
2438.249704
2437.185235
2436.122151
2435.060441
2434.000098
2432.941111
2431.883472
2430.827171
2429.772201
2428.718556
2427.666233
2426.615229
2425.565546
2424.517187
2423.470161
2422.424478
2421.380153
2420.337208
2419.295665
2418.255556
2417.216916
2416.179788
2415.144218
2414.110263
2413.077981
2412.047441
2411.018717
2409.991888
2408.967043
2407.944276
2406.923687
2405.905386
2404.889487
2403.876113
2402.865393
2401.857464
2400.852466
2399.850551
2398.851872
2397.856592
2396.864877
2395.8769
2394.89284
2393.912881
2392.93721
2391.966022
2390.999511
2390.037878
2389.081326
2388.130059
2387.184285
2386.244215
2385.31006
2384.382035
2383.460357
2382.545245
2381.636921
2380.735613
2379.841554
2378.954986
2378.076161
2377.205347
2376.342836
2375.488958
2374.644088
2373.808676
2372.983269
2372.16855
2371.365395
2370.574925
2369.79929
2369.040671
2368.301951
2367.586946
2366.900707
2366.249914
2365.64337
2365.092632
2364.612791
2364.223404
2363.949569
2363.823084
2363.883607
2364.179611
2364.768842
2365.717908
2367.100463
2368.993451
2371.470846
2374.59464
2448.969218
2447.891306
2446.814525
2445.738944
2444.664615
2443.591589
2442.519901
2441.449579
2440.380637
2439.313083
2438.246919
2437.18214
2436.118742
2435.056714
2433.996046
2432.936726
2431.878741
2430.822078
2429.766723
2428.712664
2427.659886
2426.608379
2425.558129
2424.509127
2423.461363
2422.414828
2421.369514
2420.325415
2419.282528
2418.24085
2417.20038
2416.161121
2415.123075
2414.086249
2413.050652
2412.016293
2410.983187
2409.951349
2408.920797
2407.891553
2406.86364
2405.837085
2404.811918
2403.788172
2402.765884
2401.745093
2400.725842
2399.708178
2398.692149
2397.677809
2396.665215
2395.654425
2394.645504
2393.638517
2392.633536
2391.630633
2390.629885
2389.631369
2388.635169
2387.641367
2386.650052
2385.661313
2384.675243
2383.69194
2382.711503
2381.734037
2380.759652
2379.788466
2378.820606
2377.85621
2376.895434
2375.938456
2374.985486
2374.036763
2373.092592
2372.153352
2371.219536
2370.29178
2369.370926
2368.458162
2367.555118
2366.663836
2365.787031
2364.928306
2364.092432
2363.285704
2362.516383
2361.795246
2361.136245
2360.557276
2360.081034
2359.735888
2359.5567
2359.58539
2359.871039
2360.469205
2361.440089
2362.845195
2364.7422
2367.178019
2448.969075
2447.891007
2446.814058
2445.738295
2444.663772
2443.590536
2442.518628
2441.448074
2440.378893
2439.311093
2438.244678
2437.179647
2436.115995
2435.053713
2433.992791
2432.933216
2431.874976
2430.818056
2429.762443
2428.708121
2427.655076
2426.603294
2425.552761
2424.503462
2423.455386
2422.408518
2421.362848
2420.318363
2419.275053
2418.232909
2417.19192
2416.15208
2415.113381
2414.075818
2413.039383
2412.004075
2410.969888
2409.936821
2408.904871
2407.874039
2406.844324
2405.815728
2404.788255
2403.761907
2402.73669
2401.712609
2400.689674
2399.667892
2398.647274
2397.627831
2396.609577
2395.592525
2394.576691
2393.562092
2392.548748
2391.536677
2390.525899
2389.516438
2388.508315
2387.501555
2386.496182
2385.492222
2384.489704
2383.488656
2382.489111
2381.491101
2380.494667
2379.49985
2378.506704
2377.515289
2376.525684
2375.537987
2374.552325
2373.568867
2372.587833
2371.609508
2370.634295
2369.662745
2368.695595
2367.733917
2366.779094
2365.832994
2364.898118
2363.97781
2363.07651
2362.200082
2361.356208
2360.554875
2359.808942
2359.134783
2358.552981
2358.089004
2357.773783
2357.644039
2357.742167
2358.115434
2358.81423
2359.889135
2361.386664
2363.343781
2448.968963
2447.890772
2446.813692
2445.737785
2444.663107
2443.589705
2442.51762
2441.44688
2440.377504
2439.309504
2438.242885
2437.177648
2436.113789
2435.051299
2433.99017
2432.930389
2431.871943
2430.814819
2429.759002
2428.704477
2427.651229
2426.599244
2425.548506
2424.499003
2423.450719
2422.403641
2421.357756
2420.313052
2419.269517
2418.227139
2417.185907
2416.145811
2415.106842
2414.068991
2413.032249
2411.996608
2410.96206
2409.928598
2408.896216
2407.864907
2406.834664
2405.805484
2404.77736
2403.750287
2402.724262
2401.699281
2400.67534
2399.652436
2398.630567
2397.60973
2396.589922
2395.571142
2394.553389
2393.536661
2392.520956
2391.506274
2390.492612
2389.479969
2388.468342
2387.457729
2386.448127
2385.439533
2384.431942
2383.425351
2382.419756
2381.415155
2380.411546
2379.408931
2378.407317
2377.406719
2376.407164
2375.408697
2374.411391
2373.41535
2372.420734
2371.427767
2370.436763
2369.448189
2368.462705
2367.48123
2366.505017
2365.535774
2364.575815
2363.62825
2362.697224
2361.788216
2360.908402
2360.067086
2359.2762
2358.550853
2357.909907
2357.376509
2356.978509
2356.748628
2356.724215
2356.946404
2357.458475
2358.303266
2359.51957
2361.137659
2448.968875
2447.89059
2446.813407
2445.73739
2444.662591
2443.589058
2442.516833
2441.445945
2440.376414
2439.308255
2438.241473
2437.176071
2436.112045
2435.049388
2433.988092
2432.928145
2431.869535
2430.812247
2429.756267
2428.701581
2427.648173
2426.596028
2425.545132
2424.495469
2423.447027
2422.399791
2421.353748
2420.308885
2419.265189
2418.22265
2417.181255
2416.140994
2415.101857
2414.063833
2413.026914
2411.991091
2410.956354
2409.922696
2408.890109
2407.858584
2406.828113
2405.798691
2404.770308
2403.742959
2402.716636
2401.691332
2400.667042
2399.643757
2398.621471
2397.600177
2396.579868
2395.560537
2394.542175
2393.524775
2392.508328
2391.492825
2390.478254
2389.464605
2388.451865
2387.44002
2386.429054
2385.418951
2384.409691
2383.401256
2382.393622
2381.386769
2380.380674
2379.375315
2378.370672
2377.366733
2376.363493
2375.360963
2374.359175
2373.358199
2372.358141
2371.35918
2370.361581
2369.36573
2368.372218
2367.381872
2366.39584
2365.415705
2364.44363
2363.482539
2362.536339
2361.610199
2360.710888
2359.847164
2359.030223
2358.27418
2357.596555
2357.018708
2356.566148
2356.268591
2356.15965
2356.27598
2356.655749
2357.336317
2358.351115
2359.72587
2448.96881
2447.890452
2446.813192
2445.73709
2444.6622
2443.588568
2442.516236
2441.445234
2440.375584
2439.307301
2438.240393
2437.174862
2436.110707
2435.047921
2433.986495
2432.926419
2431.86768
2430.810265
2429.754159
2428.699347
2427.645815
2426.593547
2425.542528
2424.492744
2423.444181
2422.396824
2421.350661
2420.305677
2419.261862
2418.219202
2417.177687
2416.137305
2415.098046
2414.0599
2413.022857
2411.986909
2410.952045
2409.918257
2408.885538
2407.853877
2406.823268
2405.793703
2404.765172
2403.73767
2402.711188
2401.685717
2400.661251
2399.637781
2398.615299
2397.593796
2396.573263
2395.553691
2394.53507
2393.517388
2392.500635
2391.484796
2390.469858
2389.455805
2388.442619
2387.430281
2386.418769
2385.40806
2384.398127
2383.388941
2382.380472
2381.372685
2380.365546
2379.359019
2378.353069
2377.347665
2376.34278
2375.338403
2374.33454
2373.331228
2372.328552
2371.326647
2370.325738
2369.326171
2368.328468
2367.333397
2366.342027
2365.355849
2364.376911
2363.407994
2362.452825
2361.516339
2360.604993
2359.727133
2358.893396
2358.117149
2357.414907
2356.806705
2356.316324
2355.971289
2355.802507
2355.843433
2356.128617
2356.69159
2357.562089
2358.76276
2448.968762
2447.890353
2446.813038
2445.736875
2444.661918
2443.588215
2442.515805
2441.444721
2440.374985
2439.306612
2438.239611
2437.173986
2436.109735
2435.046854
2433.985333
2432.925162
2431.866329
2430.80882
2429.752621
2428.697718
2427.644094
2426.591736
2425.540628
2424.490755
2423.442103
2422.394658
2421.348407
2420.303337
2419.259434
2418.216688
2417.175086
2416.134617
2415.095271
2414.057038
2413.019907
2411.98387
2410.948917
2409.915039
2408.882228
2407.850475
2406.819772
2405.79011
2404.761482
2403.733879
2402.707293
2401.681717
2400.657141
2399.633557
2398.610957
2397.58933
2396.568667
2395.548957
2394.530189
2393.512352
2392.49543
2391.47941
2390.464276
2389.450009
2388.436588
2387.423993
2386.412196
2385.401172
2384.390888
2383.381311
2382.372403
2381.364125
2380.356434
2379.349284
2378.342631
2377.336432
2376.330645
2375.325244
2374.320216
2373.315575
2372.311384
2371.307757
2370.304896
2369.30311
2368.302879
2367.30492
2366.310254
2365.320302
2364.337031
2363.36312
2362.402167
2361.458939
2360.53967
2359.652409
2358.807396
2358.017463
2357.298416
2356.669353
2356.152844
2355.774883
2355.564512
2355.552981
2355.772377
2356.253649
2357.024061
2358.104225
2448.968732
2447.890289
2446.812938
2445.736736
2444.661736
2443.587986
2442.515526
2441.444388
2440.374595
2439.306163
2438.239102
2437.173415
2436.109102
2435.046158
2433.984574
2432.924341
2431.865445
2430.807875
2429.751615
2428.696652
2427.642968
2426.590551
2425.539384
2424.489453
2423.440743
2422.393241
2421.346933
2420.301806
2419.257847
2418.215044
2417.173385
2416.13286
2415.093457
2414.055167
2413.01798
2411.981885
2410.946874
2409.912938
2408.880068
2407.848255
2406.817492
2405.787769
2404.759078
2403.731412
2402.704762
2401.679119
2400.654474
2399.63082
2398.608146
2397.586443
2396.565701
2395.545908
2394.527052
2393.509121
2392.4921
2391.475973
2390.460723
2389.446331
2388.432774
2387.420029
2386.408068
2385.396861
2384.386374
2383.376571
2382.367411
2381.358849
2380.350837
2379.343326
2378.336264
2377.329601
2376.323288
2375.317287
2374.311572
2373.306148
2372.30105
2371.296383
2370.292329
2369.289199
2368.287433
2367.287713
2366.291022
2365.298737
2364.312774
2363.335748
2362.371175
2361.423713
2360.499452
2359.606251
2358.754095
2357.955473
2357.225738
2356.583388
2356.050224
2355.651277
2355.414407
2355.369488
2355.547072
2355.976507
2356.683539
2357.687535
2448.968717
2447.890258
2446.812889
2445.736668
2444.661647
2443.587874
2442.515389
2441.444224
2440.374403
2439.305943
2438.238851
2437.173134
2436.10879
2435.045814
2433.984199
2432.923935
2431.865009
2430.807408
2429.751118
2428.696125
2427.642412
2426.589965
2425.538769
2424.488809
2423.440071
2422.39254
2421.346204
2420.301049
2419.257061
2418.21423
2417.172544
2416.131991
2415.09256
2414.054242
2413.017027
2411.980904
2410.945865
2409.9119
2408.879001
2407.847159
2406.816366
2405.786613
2404.757892
2403.730195
2402.703512
2401.677837
2400.653159
2399.62947
2398.606761
2397.585021
2396.56424
2395.544407
2394.525508
2393.507532
2392.490463
2391.474285
2390.45898
2389.444527
2388.430906
2387.418089
2386.406049
2385.394755
2384.384172
2383.374262
2382.364981
2381.356283
2380.348119
2379.340436
2378.333179
2377.326295
2376.31973
2375.313445
2374.307405
2373.301613
2372.296089
2371.290935
2370.286301
2369.28251
2368.279987
2367.279401
2366.281714
2365.288284
2364.301001
2363.322451
2362.356106
2361.406571
2360.479868
2359.58376
2358.728108
2357.925234
2357.190267
2356.541415
2356.000106
2355.590898
2355.341084
2355.279871
2355.437071
2355.841265
2356.51747
2357.48446
2448.968717
2447.890258
2446.812889
2445.736668
2444.661647
2443.587874
2442.515389
2441.444224
2440.374403
2439.305943
2438.238851
2437.173134
2436.10879
2435.045814
2433.984199
2432.923935
2431.865009
2430.807408
2429.751118
2428.696125
2427.642412
2426.589965
2425.538769
2424.488809
2423.440071
2422.392541
2421.346204
2420.301049
2419.257061
2418.21423
2417.172544
2416.131991
2415.092561
2414.054243
2413.017027
2411.980904
2410.945865
2409.9119
2408.879001
2407.847159
2406.816366
2405.786613
2404.757892
2403.730195
2402.703513
2401.677837
2400.65316
2399.629471
2398.606762
2397.585022
2396.564241
2395.544408
2394.525509
2393.507533
2392.490464
2391.474286
2390.458981
2389.444529
2388.430907
2387.418091
2386.406051
2385.394758
2384.384175
2383.374265
2382.364984
2381.356287
2380.348123
2379.34044
2378.333183
2377.326299
2376.319735
2375.313451
2374.307412
2373.30162
2372.296097
2371.290943
2370.28631
2369.28252
2368.279999
2367.279414
2366.281728
2365.2883
2364.301019
2363.322471
2362.356129
2361.406598
2360.479898
2359.583795
2358.728149
2357.925282
2357.190323
2356.541481
2356.000183
2355.590989
2355.34119
2355.279995
2355.437215
2355.841432
2356.517661
2357.484677
2448.968732
2447.890289
2446.812938
2445.736736
2444.661736
2443.587986
2442.515526
2441.444388
2440.374595
2439.306163
2438.239102
2437.173415
2436.109102
2435.046158
2433.984574
2432.924341
2431.865445
2430.807875
2429.751616
2428.696652
2427.642969
2426.590551
2425.539384
2424.489453
2423.440744
2422.393242
2421.346933
2420.301806
2419.257847
2418.215044
2417.173385
2416.13286
2415.093458
2414.055168
2413.01798
2411.981886
2410.946875
2409.912939
2408.880069
2407.848256
2406.817493
2405.78777
2404.75908
2403.731414
2402.704763
2401.67912
2400.654476
2399.630822
2398.608149
2397.586446
2396.565704
2395.545911
2394.527055
2393.509124
2392.492104
2391.475977
2390.460728
2389.446336
2388.43278
2387.420035
2386.408074
2385.396868
2384.386382
2383.37658
2382.36742
2381.358859
2380.350848
2379.343339
2378.336278
2377.329616
2376.323303
2375.317304
2374.311591
2373.306168
2372.301072
2371.296408
2370.292356
2369.289229
2368.287468
2367.287751
2366.291064
2365.298785
2364.312828
2363.33581
2362.371245
2361.423792
2360.499544
2359.606357
2358.754218
2357.955617
2357.225906
2356.583585
2356.050456
2355.651549
2355.414726
2355.369861
2355.547507
2355.97701
2356.684117
2357.688192
2448.968762
2447.890353
2446.813038
2445.736875
2444.661918
2443.588215
2442.515805
2441.444721
2440.374985
2439.306612
2438.239611
2437.173986
2436.109735
2435.046854
2433.985333
2432.925162
2431.866329
2430.80882
2429.752621
2428.697718
2427.644094
2426.591736
2425.540628
2424.490755
2423.442103
2422.394659
2421.348408
2420.303337
2419.259435
2418.216689
2417.175087
2416.134618
2415.095272
2414.057039
2413.019908
2411.983871
2410.948918
2409.915041
2408.882229
2407.850476
2406.819773
2405.790112
2404.761484
2403.733881
2402.707296
2401.68172
2400.657144
2399.633561
2398.610961
2397.589334
2396.568672
2395.548962
2394.530195
2393.512358
2392.495437
2391.479418
2390.464284
2389.450017
2388.436598
2387.424003
2386.412208
2385.401184
2384.390901
2383.381325
2382.372419
2381.364142
2380.356452
2379.349305
2378.342654
2377.336456
2376.330672
2375.325273
2374.320247
2373.31561
2372.311422
2371.3078
2370.304942
2369.303162
2368.302936
2367.304984
2366.310326
2365.320382
2364.337121
2363.363222
2362.402284
2361.459072
2360.539824
2359.652586
2358.807602
2358.017704
2357.298699
2356.669685
2356.153233
2355.775342
2355.565051
2355.553612
2355.773113
2356.254503
2357.025043
2358.105344
2448.96881
2447.890452
2446.813192
2445.73709
2444.6622
2443.588568
2442.516235
2441.445234
2440.375584
2439.307301
2438.240393
2437.174862
2436.110707
2435.047921
2433.986495
2432.926419
2431.86768
2430.810265
2429.754159
2428.699348
2427.645815
2426.593547
2425.542528
2424.492745
2423.444181
2422.396825
2421.350661
2420.305678
2419.261862
2418.219203
2417.177688
2416.137306
2415.098047
2414.059901
2413.022859
2411.98691
2410.952047
2409.918259
2408.88554
2407.85388
2406.823271
2405.793706
2404.765176
2403.737674
2402.711191
2401.685721
2400.661255
2399.637786
2398.615304
2397.593802
2396.57327
2395.553698
2394.535078
2393.517397
2392.500644
2391.484806
2390.469869
2389.455817
2388.442632
2387.430295
2386.418785
2385.408077
2384.398145
2383.388961
2382.380494
2381.372709
2380.365572
2379.359048
2378.3531
2377.347698
2376.342817
2375.338443
2374.334584
2373.331277
2372.328605
2371.326705
2370.325803
2369.326243
2368.328548
2367.333486
2366.342127
2365.355961
2364.377037
2363.408137
2362.452989
2361.516527
2360.60521
2359.727384
2358.893688
2358.11749
2357.415308
2356.807177
2356.31688
2355.971943
2355.803279
2355.844339
2356.129676
2356.692822
2357.56351
2358.764382
2448.968875
2447.89059
2446.813407
2445.73739
2444.662591
2443.589058
2442.516833
2441.445945
2440.376414
2439.308255
2438.241473
2437.176071
2436.112045
2435.049388
2433.988092
2432.928146
2431.869535
2430.812247
2429.756268
2428.701581
2427.648173
2426.596028
2425.545132
2424.49547
2423.447028
2422.399792
2421.353749
2420.308885
2419.26519
2418.222651
2417.181256
2416.140995
2415.101858
2414.063835
2413.026916
2411.991093
2410.956357
2409.922699
2408.890112
2407.858587
2406.828117
2405.798694
2404.770312
2403.742963
2402.716641
2401.691338
2400.667047
2399.643763
2398.621478
2397.600185
2396.579876
2395.560546
2394.542185
2393.524786
2392.50834
2391.492838
2390.478268
2389.464621
2388.451882
2387.440038
2386.429074
2385.418972
2384.409715
2383.401281