/*--------------------------------*- C++ -*----------------------------------*\
  =========                 |
  \\      /  F ield         | OpenFOAM: The Open Source CFD Toolbox
   \\    /   O peration     | Website:  https://openfoam.org
    \\  /    A nd           | Version:  8
     \\/     M anipulation  |
\*---------------------------------------------------------------------------*/
FoamFile
{
    version     2.0;
    format      ascii;
    class       volScalarField;
    location    "3000";
    object      p;
}
// * * * * * * * * * * * * * * * * * * * * * * * * * * * * * * * * * * * * * //

dimensions      [0 2 -2 0 0 0 0];

internalField   nonuniform List<scalar> 
40000
(
745.6289781
739.4728501
735.3340948
733.2078004
731.6517455
730.1454393
728.7037422
727.3652485
726.1145961
724.9184139
723.7571056
722.6181325
721.4971884
720.390189
719.2879487
718.1902648
717.097447
716.0074887
714.9183446
713.8288619
712.7397397
711.6508608
710.5600856
709.4680945
708.3768697
707.287356
706.1992557
705.1122322
704.0262574
702.9415812
701.8581954
700.7751453
699.6912482
698.6061187
697.5199481
696.4333751
695.3466694
694.2592802
693.1711987
692.0831473
690.9956573
689.9087358
688.8221797
687.7358341
686.6496045
685.5633619
684.4770014
683.3903457
682.3031323
681.2152428
680.126507
679.0364771
677.944456
676.8496148
675.7511458
674.6482788
673.5402031
672.4260254
671.3048208
670.1755792
669.0369734
667.8872488
666.7242858
665.5456342
664.3484504
663.1294039
661.8845953
660.6094706
659.2987196
657.9461431
656.5445356
655.0855271
653.5594291
651.9550575
650.2587767
648.4530593
646.5180611
644.4312424
642.1658359
639.6896825
636.9642697
633.9434979
630.5720468
626.7832608
622.4969887
617.6116571
611.9929301
605.4932767
597.9226599
589.0786808
578.6320458
566.1815693
551.0980018
532.6994726
509.9759291
481.3989143
444.6355853
395.7373598
328.4060506
229.4633234
737.9433738
735.2962923
732.9368116
731.4713065
730.216832
728.9522836
727.7172176
726.5456241
725.42858
724.3462499
723.2876828
722.2489434
721.2275091
720.2111722
719.1878731
718.1587414
717.1277462
716.0953701
715.0601669
714.0199547
712.9741384
711.9252114
710.8752534
709.8242352
708.7713134
707.7160089
706.6583604
705.5987525
704.5374272
703.4747702
702.4108666
701.3447959
700.275781
699.2039315
698.1288964
697.0517735
695.9739005
694.8944379
693.8133103
692.7311886
691.6483722
690.5648004
689.4804133
688.3952559
687.3093798
686.2227677
685.1355478
684.0472727
682.9577504
681.8674543
680.7762539
679.6836957
678.5890136
677.4912365
676.3895415
675.2832156
674.1714809
673.05337
671.9281075
670.7949958
669.6528639
668.4999834
667.3342681
666.1533269
664.9543806
663.7341717
662.4888914
661.2140906
659.9045716
658.554239
657.1559705
655.7012925
654.1807371
652.584601
650.9013567
649.1120509
647.1967662
645.1338212
642.8974968
640.4567938
637.7745098
634.8061514
631.4979348
627.7850009
623.5899235
618.8230332
613.3860936
607.1360659
599.8993834
591.4236649
581.4455524
569.5976103
555.501445
538.521806
517.8621374
492.5320516
461.1955244
422.4128579
374.6660171
322.7264887
734.1403993
733.3428167
731.9460577
730.6421384
729.4792146
728.3325222
727.1902264
726.0798199
724.9963456
723.9311306
722.8727568
721.8244978
720.8098731
719.8104832
718.7947763
717.7643604
716.7284143
715.6903446
714.6503528
713.6080666
712.5578338
711.5002953
710.4437251
709.3885162
708.3318711
707.2724018
706.2104738
705.1472985
704.0849506
703.0255193
701.9655832
700.9006167
699.8310042
698.7588903
697.6851614
696.6090952
695.5290762
694.446064
693.3633651
692.2822603
691.2019147
690.1214582
689.0406316
687.959458
686.8779364
685.7957337
684.7139914
683.6313018
682.5466435
681.4618507
680.376511
679.2900908
678.2017552
677.1105199
676.0157135
674.9166352
673.8126816
672.7027868
671.5863055
670.462633
669.3304823
668.1881263
667.0336644
665.8649241
664.6793138
663.4737784
662.2447728
660.9881729
659.6992032
658.3722125
657.0011328
655.5776955
654.0926286
652.5355013
650.8940413
649.1535502
647.2965927
645.3027899
643.1481489
640.8042291
638.2368647
635.4056628
632.2629409
628.7514551
624.8049035
620.3459212
615.2805066
609.4902326
602.8289462
595.1099969
586.1049449
575.5254839
563.0804954
548.4006184
531.1521377
511.0269649
487.8826167
461.6790463
432.7119597
406.392745
731.6951461
731.2577736
730.2773555
729.2021472
728.2021375
727.2159988
726.2113033
725.205666
724.2080088
723.2173163
722.2282695
721.2420056
720.2657169
719.2929871
718.3118729
717.3222716
716.3280109
715.3304727
714.3295525
713.3254593
712.315678
711.2987208
710.2776078
709.2526948
708.2235168
707.1893171
706.1507086
705.1060378
704.0571069
703.0181173
701.9856054
700.9446673
699.8949996
698.8414947
697.7863167
696.7308032
695.6691802
694.5974558
693.5229657
692.4500905
691.3779822
690.3053927
689.2319505
688.1576557
687.082547
686.0065104
684.9296664
683.8514919
682.77194
681.6923474
680.613921
679.5352458
678.4529624
677.3661793
676.2753931
675.1799604
674.0773534
672.9675022
671.852982
670.7336147
669.6070294
668.4709756
667.3236635
666.1631924
664.9872419
663.7930336
662.5773899
661.3366383
660.0665531
658.7620922
657.4172815
656.0251937
654.5775598
653.0632438
651.4691372
649.7854464
647.9978314
646.0877712
644.0338614
641.8112394
639.3902541
636.7324971
633.7887025
630.5118674
626.8551692
622.7668
618.1739532
612.9746315
607.0625918
600.3478015
592.7110904
583.8246261
573.5496976
561.5991421
548.0023828
533.1535441
517.1352799
500.4740012
484.5519695
473.0271615
729.7656545
729.5026351
728.8537412
728.0406665
727.2071033
726.3519261
725.4597995
724.5440869
723.6184663
722.6866349
721.7485441
720.8048247
719.8582382
718.9087939
717.9526348
716.9878252
716.0150937
715.0353925
714.0490871
713.0562368
712.0563624
711.0491302
710.0358152
709.0172435
707.9937789
706.9652444
705.9318481
704.8935285
703.8517598
702.8111489
701.7707717
700.7255648
699.6754402
698.6228233
697.5683738
696.5125693
695.453798
694.3899429
693.3233147
692.2558956
691.1876036
690.1180785
689.0474005
687.9756116
686.9028553
685.8289577
684.7539882
683.6773389
682.5987257
681.5166114
680.4380244
679.3669153
678.292384
677.2126148
676.1282006
675.0439737
673.9528309
672.8466516
671.7354216
670.6216875
669.5025874
668.3755571
667.23894
666.0910003
664.9296041
663.7522954
662.5562665
661.3382414
660.0943379
658.8200241
657.5093355
656.156632
654.7548125
653.2950584
651.7676189
650.1624585
648.4667536
646.6649554
644.7393537
642.6711033
640.4371653
638.0270436
635.3697001
632.4154612
629.1136632
625.4469452
621.4208518
616.9337138
611.8968862
606.2456972
599.9018411
592.7296988
584.675489
575.7318942
566.0693466
556.062631
546.1672584
537.284405
531.0139654
530.0645022
728.203149
728.0311295
727.5684068
726.9283594
726.2205326
725.4696248
724.673555
723.8418419
722.9871195
722.1158209
721.2305278
720.3331276
719.42587
718.5097748
717.5838256
716.6471152
715.7001369
714.7438731
713.779029
712.8060092
711.8250006
710.8361744
709.8402069
708.8378054
707.8294129
706.8151872
705.7954609
704.7707101
703.741775
702.7101747
701.676454
700.6394914
699.5986954
698.5545598
697.5075581
696.4578763
695.4051986
694.3488028
693.2893337
692.2279306
691.1650315
690.1007043
689.035047
687.9681068
686.8999932
685.8306265
684.7600281
683.6879053
682.6141733
681.5387566
680.4640463
679.3912848
678.3165175
677.2388358
676.158436
675.0767539
673.991008
672.8971353
671.7981643
670.6954086
669.5873096
668.4721485
667.3486688
666.2154841
665.0708552
663.912781
662.7389124
661.5464858
660.3322454
659.0923937
657.8224045
656.5173823
655.1714831
653.7777494
652.328216
650.8139932
649.2247806
647.5485848
645.7716925
643.879124
641.8528111
639.6756061
637.30812
634.715183
631.8686339
628.752079
625.3524449
621.6191961
617.5057904
612.9829607
608.0312705
602.6363928
596.8326784
590.7358114
584.5792491
578.7795057
573.9565179
571.0481834
571.4389427
577.0917019
726.8974369
726.7702523
726.4177979
725.9033927
725.3038627
724.6464902
723.9360835
723.1812055
722.3931192
721.5794663
720.7444822
719.8911477
719.0219863
718.1386783
717.2419421
716.3320629
715.4096913
714.4758123
713.5312981
712.5767732
711.6127256
710.6396274
709.6581171
708.6688947
707.6725382
706.6694977
705.6602645
704.645422
703.6256714
702.6019102
701.5747339
700.543864
699.5088988
698.4700573
697.4277995
696.3823848
695.3338191
694.2819641
693.2271445
692.1700451
691.1111441
690.050586
688.9884633
687.9248842
686.8599663
685.7937489
684.7262741
683.6575201
682.5875397
681.516511
680.4449685
679.3734071
678.3009295
677.2267745
676.1506511
675.0724377
673.9913639
672.9057316
671.8157045
670.7218683
669.6237175
668.5202045
667.4102925
666.2928635
665.1665683
664.0298214
662.8807702
661.7172528
660.5367444
659.336315
658.1125488
656.861558
655.5788597
654.2592423
652.8967411
651.4846769
650.0154906
648.4804903
646.8697442
645.1721905
643.3749142
641.4638765
639.4200604
637.2229287
634.8567208
632.3091745
629.5727365
626.6348914
623.4858388
620.1302639
616.5926246
612.9223297
609.2169547
605.6529597
602.5156109
600.2415464
599.445534
600.9639706
605.9096789
615.6912375
725.7830449
725.6818883
725.4000939
724.9754955
724.4610629
723.8802665
723.2410065
722.5518047
721.8226781
721.0613261
720.2727699
719.4607398
718.6281936
717.7773106
716.9095987
716.0261089
715.1278889
714.2160726
713.2916988
712.3556296
711.408609
710.4513383
709.4845472
708.5089743
707.5252918
706.5340943
705.5359623
704.5315071
703.5213745
702.5062328
701.4865772
700.462524
699.4340765
698.4014705
697.3650689
696.3251397
695.2818275
694.235239
693.1856486
692.1335081
691.079211
690.022985
688.9649978
687.905413
686.8443815
685.7820177
684.7184235
683.6536842
682.5879072
681.5212725
680.4540561
679.386481
678.3182225
677.2487827
676.1778572
675.1052278
674.0305225
672.9529842
671.8723754
670.7889129
669.7024102
668.6122259
667.5176092
666.4177714
665.3117921
664.1985753
663.0768374
661.9450834
660.8015738
659.6442982
658.4709382
657.2788533
656.0650464
654.8260981
653.558144
652.2568884
650.9175479
649.5347632
648.1025765
646.6145151
645.0634559
643.4419228
641.7414395
639.9535657
638.0734986
636.1012933
634.0429475
631.9084587
629.714819
627.4949869
625.3059518
623.2369239
621.4250832
620.0772568
619.4920765
620.083826
622.4006797
627.1416334
635.1658405
647.4665807
724.8212958
724.7369054
724.5022075
724.1418365
723.6933016
723.1752459
722.5959016
721.9633928
721.2865144
720.572495
719.8266315
719.0529822
718.2547745
717.4346207
716.5945649
715.7362146
714.8609812
713.9701931
713.0650625
712.1466522
711.2159042
710.2736886
709.3208427
708.3581748
707.3864402
706.4063335
705.4185143
704.4236324
703.4223263
702.415201
701.4027561
700.3853134
699.3630972
698.3363809
697.3054935
696.2707358
695.2323533
694.1905741
693.1456851
692.0980494
691.0480187
689.9958664
688.9418112
687.8860521
686.8287737
685.7701393
684.7102973
683.649389
682.5875624
681.5250081
680.4619222
679.3984124
678.3343636
677.2695707
676.2038846
675.1371665
674.0692263
672.999761
671.9286272
670.8558972
669.7815211
668.7052114
667.626581
666.5452141
665.4606255
664.3722315
663.2793415
662.1811492
661.0767238
659.9650062
658.8448003
657.7147669
656.5734252
655.4191487
654.2501727
653.0646273
651.8605645
650.6359867
649.3889133
648.1175263
646.8203131
645.4963982
644.1458373
642.7705885
641.3765935
639.9754124
638.585477
637.2330434
635.9553168
634.8068386
633.8667593
633.2468149
633.1025275
633.6474943
635.1678484
638.0353568
642.7158904
649.7706977
659.8446781
673.6283925
723.986611
723.9138217
723.711813
723.3981804
723.0008094
722.5339373
722.0047028
721.4203827
720.7887069
720.1164018
719.4087094
718.6697937
717.9031067
717.1115302
716.2974269
715.4627463
714.609175
713.7382358
712.8513069
711.9496203
711.0342812
710.1063027
709.1666326
708.2161648
707.2557345
706.286117
705.3080396
704.3221942
703.3292373
702.329776
701.32434
700.3133546
699.2971682
698.2761199
697.2505639
696.2208419
695.1872634
694.1501219
693.1097281
692.0664214
691.0205372
689.9723704
688.9221761
687.8701877
686.8166244
685.7616909
684.7055798
683.6484778
682.5905726
681.5320556
680.4731258
679.4139152
678.3544379
677.2946716
676.2345979
675.1742002
674.113459
673.0523369
671.9908548
670.9291372
669.8672975
668.8053597
667.7432915
666.6810573
665.6186033
664.5558735
663.4927869
662.4292276
661.3650796
660.3002492
659.2346648
658.1682825
657.101138
656.0333868
654.965343
653.8975455
652.8308451
651.7665134
650.7063963
649.6531413
648.610495
647.5837528
646.5803591
645.6108621
644.6904079
643.8403434
643.0898202
642.4776702
642.0554075
641.8919519
642.0794541
642.7398349
644.0326147
646.1638547
649.3945117
654.0463455
660.5029385
669.2029165
680.6213617
695.2330961
723.2613832
723.1971055
723.0185801
722.7396177
722.3821798
721.9567392
721.4688628
720.9249506
720.3319904
719.6961174
719.0222823
718.3145884
717.5765534
716.811188
716.0210421
715.2082876
714.3748206
713.5223355
712.6523595
711.7662671
710.8652998
709.9505927
709.0231956
708.0840863
707.1341743
706.1743046
705.2052642
704.2277907
703.2425728
702.2502448
701.251375
700.2464578
699.2359261
698.2201838
697.1996247
696.174627
695.1455452
694.1127176
693.0764819
692.0371816
690.9951538
689.9507113
688.9041393
687.8557034
686.805656
685.7542378
684.70168
683.6482081
682.5940457
681.5394131
680.4845405
679.4296107
678.374735
677.3200202
676.265579
675.2115333
674.158019
673.1051938
672.0532623
671.0024987
669.9532039
668.9056818
667.860234
666.8172117
665.7769786
664.7399972
663.7068234
662.6780152
661.6542427
660.6363764
659.6254691
658.6227148
657.6296288
656.6480789
655.6803787
654.7293952
653.7986743
652.892588
652.0165572
651.1773605
650.3835247
649.6458482
648.9780864
648.397886
647.9280471
647.5980076
647.4454949
647.5184943
647.8778889
648.6010601
649.7862563
651.557384
654.0691317
657.5120676
662.1165709
668.1540547
675.9336342
685.7921031
698.0747409
713.1041141
722.632887
722.574952
722.4139508
722.1612509
721.8348299
721.4425388
720.9886106
720.4785589
719.9185884
719.3142098
718.6700107
717.9899443
717.2775004
716.5357364
715.7673057
714.9745203
714.1594228
713.3238418
712.4694265
711.5976684
710.7099214
709.8074232
708.8913135
707.9626477
707.0224039
706.0714892
705.1107459
704.1409573
703.1628503
702.1770947
701.1842995
700.1850125
699.179728
698.1689038
697.1529742
696.1323528
695.1074312
694.0785835
693.0461738
692.0105608
690.9720929
689.9311015
688.8878973
687.842775
686.7960172
685.7478972
684.6986811
683.6486313
682.5980077
681.5470741
680.4961063
679.4453357
678.3949592
677.3451979
676.2962855
675.2484746
674.2020481
673.1573312
672.114705
671.0746205
670.0375892
669.0041795
667.975021
666.950833
665.9324339
664.9207741
663.9169526
662.9222215
661.9380001
660.9660186
660.0084807
659.067731
658.14678
657.2491182
656.3788947
655.5411121
654.7418375
653.9883468
653.2893444
652.6553172
652.099006
651.6359717
651.2852857
651.0704139
651.0203277
651.1708236
651.5660315
652.2601823
653.3197795
654.8262766
656.8791417
659.5990318
663.1307993
667.6458982
673.3433621
680.4482194
689.2060409
699.8722392
712.6947744
727.8892449
722.0915549
722.0384232
721.8907159
721.6581329
721.3559431
720.9902001
720.5640475
720.082145
719.5499597
718.9724379
718.3538065
717.6978214
717.0078833
716.2870341
715.5379677
714.7630738
713.9644905
713.1441446
712.3037817
711.4449873
710.569207
709.6777639
708.7718755
707.8526658
706.9211747
705.978365
705.0251289
704.0622935
703.0906247
702.1108292
701.123555
700.129394
699.1288885
698.1225406
697.1108225
696.0941812
695.0730401
694.0478033
693.0188597
691.9865863
690.9513482
689.9134953
688.8733619
687.8312683
686.7875253
685.7424358
684.6962986
683.6494107
682.6020674
681.5545911
680.5072961
679.4604544
678.4143544
677.3693162
676.3256809
675.2838211
674.244156
673.2071627
672.1733904
671.1434721
670.1181324
669.0981931
668.0845911
667.0783965
666.0808466
665.0933606
664.1175973
663.1554438
662.209129
661.2811724
660.3746579
659.4929268
658.6402858
657.8220056
657.0440757
656.3134485
655.6383123
655.0285009
654.4957045
654.0537069
653.7188771
653.5107871
653.4528966
653.5733527
653.9059527
654.491277
655.3779739
656.6242165
658.2993689
660.4858671
663.2812002
666.7997613
671.1742655
676.5563276
683.1155877
691.0366005
700.5126328
711.7355635
724.8812855
740.0904738
721.6301424
721.5806878
721.4431668
721.2261161
720.9429133
720.5983525
720.1947287
719.7359685
719.2268999
718.6719746
718.0750777
717.4397486
716.7692645
716.0666143
715.3344907
714.5753197
713.7912976
712.9844202
712.1565054
711.3092125
710.4440601
709.5624415
708.6656391
707.7548361
706.8311265
705.8955219
704.9489592
703.9923058
703.0263644
702.0518766
701.0695263
700.0799427
699.0837066
698.0813575
697.0734006
696.0603126
695.042545
694.0205272
692.9946708
691.9653723
690.9330141
689.8979651
688.8605803
687.8212039
686.7801714
685.7378133
684.6944578
683.650434
682.6060778
681.5617642
680.5178389
679.4746194
678.4324794
677.3918246
676.3530912
675.3167612
674.2833771
673.2535554
672.2280007
671.2075211
670.1930435
669.185628
668.186492
667.1970341
666.2188714
665.2538695
664.3041943
663.3723453
662.461226
661.5741912
660.7151433
659.888585
659.0997079
658.3547675
657.6613249
657.029063
656.4681784
655.9903775
655.6097692
655.3430249
655.2096272
655.23246
655.4385168
655.8596225
656.5332425
657.5034134
658.8217804
660.5487181
662.7545175
665.5205967
668.9406206
673.1213319
678.1828263
684.2579288
691.4902341
700.0302933
710.0294294
721.6307727
734.9573476
750.097474
721.2431069
721.1964745
721.0667762
720.8617217
720.5933414
720.2655409
719.8799783
719.4399869
718.9498593
718.4136238
717.8348584
717.2168928
716.5628717
715.8757116
715.1580799
714.4124115
713.6409345
712.8456896
712.0285471
711.1912223
710.3352907
709.4622017
708.5732909
707.6697913
706.7528426
705.8234986
704.8827349
703.9314545
702.9704932
702.0006243
701.0225627
700.0369695
699.0444571
698.0455956
697.0409186
696.0309285
695.0161007
693.9968868
692.9737184
691.9470101
690.9171617
689.8845592
688.8495769
687.8125794
686.7739248
685.7339677
684.6930633
683.6515671
682.6098667
681.5683707
680.5274454
679.4874709
678.4488895
677.41218
676.3778625
675.346516
674.3187927
673.2954331
672.2772825
671.2653089
670.2606234
669.2645022
668.278414
667.3040525
666.343375
665.3986472
664.4724921
663.5679531
662.6885474
661.8383641
661.0221004
660.2452251
659.5139257
658.8355711
658.2184231
657.6730949
657.21345
656.853357
656.6083029
656.4970677
656.5417524
656.7679894
657.2055642
657.8891118
658.8588013
660.1610648
661.8493875
663.9851149
666.6382221
669.8879787
673.8234051
678.5433514
684.1559798
690.7773866
698.5290616
707.5338627
717.910224
729.7644408
743.1810979
758.2120488
720.9261962
720.8817133
720.7579757
720.5621009
720.3051532
719.9904115
719.6190666
719.193988
718.7190372
718.1978932
717.6338731
717.0301196
716.3896501
715.7153039
715.0097108
714.2752987
713.5143094
712.7288113
711.9207109
711.0917646
710.2435914
709.3776842
708.4954213
707.5980758
706.6868251
705.7627582
704.8268832
703.8801333
702.9233729
701.9574022
700.9829626
700.0007414
699.0113768
698.0154639
697.0135596
696.0061881
694.9938446
693.9769994
692.9561015
691.9315816
690.9038546
689.8733223
688.8403755
687.8053966
686.7687631
685.7308502
684.6920371
683.6527022
682.613282
681.5742094
680.535868
679.4986983
678.4631997
677.4299123
676.3994283
675.3724096
674.3496032
673.3318563
672.3201365
671.3155514
670.3193735
669.3330662
668.3583165
667.3970718
666.4515846
665.5244623
664.6187278
663.7378834
662.8859929
662.0677559
661.2886186
660.5548236
659.873581
659.2530227
658.7027015
658.2333899
657.8593748
657.5995787
657.471008
657.4932006
657.6900241
658.0893899
658.7233103
659.6285142
660.8470898
662.4270503
664.4228983
666.8961598
669.915806
673.5584926
677.9085214
683.0573843
689.102717
696.1464712
704.2921042
713.6406031
724.2852178
736.3048968
749.7566083
764.6669812
720.676172
720.6332904
720.5139946
720.3249815
720.0766296
719.7717802
719.4112894
718.997679
718.5344778
718.0250902
717.4726233
716.8800632
716.2503163
715.58615
714.8901545
714.1647424
713.4121586
712.6344874
711.8336594
711.0114601
710.16954
709.3094252
708.4325264
707.5401481
706.6334975
705.7136915
704.7817644
703.838674
702.8853077
701.9224879
700.9509772
699.9714838
698.9846665
697.99114
696.9914797
695.9862272
694.9758938
693.960965
692.9419038
691.9191543
690.8931446
689.8642893
688.8329931
687.7996531
686.7646625
685.728414
684.6913063
683.6537386
682.6161861
681.5791011
680.542884
679.5080249
678.4750699
677.4446089
676.4172933
675.393853
674.3751125
673.3620072
672.3556058
671.3571314
670.3679907
669.3898009
668.4244299
667.4740321
666.5411036
665.6285303
664.7396616
663.8783773
663.049178
662.2572854
661.5087286
660.8105011
660.1705416
659.598026
659.1029691
658.6973494
658.3943491
658.214684
658.1808902
658.3124446
658.633519
659.1736405
659.966656
661.0508829
662.4697131
664.2721259
666.5130976
669.2539019
672.5622497
676.5122089
681.1838137
686.6622427
693.0364346
700.3970053
708.8333474
718.4298155
729.2609752
741.3859934
754.8424018
769.6396481
720.4906226
720.4488787
720.3327396
720.1486136
719.9064094
719.6086732
719.2560317
718.85076
718.3961458
717.8953912
717.3514454
716.7671742
716.1453961
715.4888193
714.7999983
714.0813297
713.3350561
712.5632701
711.767917
710.950802
710.1135979
709.2578539
708.3850043
707.4963768
706.5932004
705.676613
704.7476684
703.8073431
702.8565419
701.896104
700.9268082
699.9493783
698.9644882
697.9727673
696.974805
695.9711557
694.9623431
693.948864
692.9311923
691.9097824
690.8850723
689.8574871
688.8274417
687.7953447
686.7616014
685.726618
684.6908069
683.6545909
682.6184662
681.5828962
680.548306
679.5152197
678.4842176
677.4559282
676.4310485
675.41036
674.3947468
673.3852116
672.3829015
671.3891276
670.4054007
669.4334549
668.4752985
667.5332412
666.6099689
665.7085726
664.8326589
663.9863755
663.1745755
662.4028318
661.677674
661.0065764
660.3982617
659.8625753
659.4106753
659.0545462
658.8077615
658.6876482
658.7244911
658.9393932
659.3554943
660.0026043
660.9159854
662.1353145
663.7048695
665.6741405
668.0982471
671.0380555
674.5600813
678.7361815
683.6429303
689.3605611
695.9713732
703.5575179
712.198092
721.9655064
732.9211619
745.1105613
758.5581016
773.2619293
720.3678347
720.326821
720.2127082
720.0317242
719.7934834
719.5003496
719.1528065
718.7529716
718.3039761
717.8088893
717.2705552
716.6917583
716.0752566
715.4237162
714.7396658
714.0254884
713.2834235
712.515567
711.723873
710.9101586
710.0761103
709.2232925
708.3531547
707.4670396
706.5661906
705.6517597
704.7248137
703.7863415
702.8372596
701.8784185
700.9106077
699.9345616
698.9509642
697.9604545
696.9636311
695.9610571
694.9532644
693.9407576
692.9240177
691.9035061
690.8796679
689.8529349
688.8237293
687.7924673
686.7595625
685.7254301
684.6904919
683.6551887
682.6200275
681.5854792
680.5519895
679.5201034
678.4904242
677.4636067
676.4403786
675.4215563
674.4080645
673.4009511
672.4014167
671.4108315
670.430778
669.4630677
668.5098064
667.5734046
666.6566819
665.7628576
664.895723
664.0595834
663.2595514
662.5013805
661.7919801
661.1390236
660.5518649
660.0406835
659.6180066
659.2964447
659.0906636
659.0119514
659.0928105
659.3624754
659.8431056
660.56255
661.5566721
662.8664003
664.5366593
666.6171444
669.1629511
672.2345778
675.8976346
680.2223841
685.2829809
691.1562746
697.9200995
705.6509971
714.4213347
724.2958202
735.3274787
747.5532423
760.9894009
775.6272653
720.3067087
720.266052
720.15293
719.9734834
719.7371851
719.4463118
719.1012784
718.7041257
718.257908
717.7656289
717.2300798
716.6540044
716.0401297
715.3911002
714.7094309
713.9974976
713.2575373
712.4916471
711.7017852
710.889774
710.0573071
709.205956
708.3371775
707.4523219
706.55264
705.6392903
704.7133465
703.7758035
702.8275839
701.8695435
700.9024776
699.9271256
698.9441765
697.9542742
696.958022
695.9559873
694.948706
693.9366865
692.9204137
691.9003524
690.8769512
689.8506453
688.8218608
687.7910175
686.7585332
685.7248279
684.6903279
683.6554832
682.6208064
681.5867716
680.5538356
679.5225538
678.4935409
677.467465
676.4450694
675.427188
674.414766
673.4088739
672.4107397
671.4217629
670.443563
669.4779894
668.5271985
667.5936494
666.680232
665.7902245
664.9275191
664.0964844
663.3023828
662.551016
661.849526
661.2055606
660.6288625
660.1293934
659.7205676
659.4151271
659.2308731
659.1821628
659.2814264
659.5759084
660.0888118
660.8447658
661.8793305
663.2342647
664.9548889
667.0909406
669.6974517
672.8347062
676.5678306
680.966255
686.1028919
692.0528761
698.8918006
706.6934158
715.5267675
725.4527917
736.5204454
748.7625333
762.1914791
776.7953747
720.3067071
720.2660504
720.1529283
719.9734817
719.7371834
719.4463101
719.1012766
718.7041238
718.257906
717.7656268
717.2300776
716.654002
716.0401272
715.3910976
714.7094281
713.9974947
713.2575341
712.4916438
711.7017816
710.8897702
710.057303
709.2059515
708.3371727
707.4523167
706.5526344
705.6392843
704.71334
703.7757965
702.8275763
701.8695354
700.9024688
699.927116
698.9441662
697.9542631
696.95801
695.9559743
694.948692
693.9366713
692.9203973
691.9003347
690.876932
689.8506247
688.8218385
687.7909934
686.7585071
685.7247997
684.6902974
683.6554503
682.6207707
681.5867331
680.553794
679.5225088
678.4934923
677.4674125
676.4450128
675.4271268
674.4146999
673.4088026
672.4106626
671.4216797
670.4434731
669.4778925
668.527094
667.5935366
666.6801104
665.7900934
664.9273778
664.0963324
663.302219
662.5508401
661.8493367
661.2053583
660.628645
660.1291638
659.7203213
659.4148726
659.2305761
659.1818169
659.2810936
659.575567
660.0884468
660.8443781
661.878923
663.2338387
664.9544457
667.0904825
669.6969819
672.8342289
676.5673509
680.9657793
686.102428
692.0524328
698.8913883
706.6930458
715.5264521
725.4525438
736.5202778
748.7624581
762.1915067
776.7955134
720.3678298
720.3268161
720.2127033
720.0317191
719.7934782
719.5003443
719.152801
718.7529659
718.3039701
717.8088831
717.2705487
716.6917514
716.0752493
715.4237084
714.7396575
714.0254796
713.2834141
712.5155569
711.7238622
710.9101469
710.0760978
709.2232791
708.3531403
707.467024
706.5661738
705.6517416
704.7247942
703.7863204
702.8372369
701.878394
700.9105813
699.934533
698.9509333
697.9604211
696.9635951
695.9610182
694.9532224
693.9407121
692.9239686
691.9034531
690.8796106
689.8528729
688.8236624
687.792395
686.7594843
685.7253457
684.6904007
683.65509
682.6199208
681.5853639
680.5518649
679.5199688
678.4902788
677.4634496
676.4402089
675.4213731
674.4078666
673.4007374
672.4011859
671.4105824
670.430509
669.4627775
668.5094932
667.5730669
666.6563176
665.7624649
664.8952998
664.0591277
663.2590607
662.500853
661.7914129
661.1384152
660.5512117
660.0399843
659.6172545
659.2956325
659.0897771
659.0110001
659.0918284
659.3614405
659.8420034
660.5613839
661.5554471
662.8651194
664.5353265
666.6157663
669.1615372
672.2331403
675.8961889
680.2209492
685.2815796
691.1549341
697.9188507
705.6498744
714.4203755
724.2950635
735.3269637
747.5530059
760.9894754
775.6276762
720.4906145
720.4488706
720.3327313
720.1486052
719.9064009
719.6086644
719.2560226
718.8507505
718.3961359
717.8953809
717.3514345
716.7671627
716.1453839
715.4888063
714.7999845
714.081315
713.3350404
712.5632533
711.767899
710.9507827
710.1135771
709.2578316
708.3849803
707.496351
706.5931725
705.6765829
704.747636
703.8073082
702.8565042
701.8960633
700.9267642
699.9493308
698.964437
697.972712
696.9747452
695.9710912
694.9622733
693.9487886
692.9311109
691.9096944
690.8849772
689.8573843
688.8273307
687.7952247
686.7614717
685.7264778
684.6906555
683.6544272
682.6182891
681.5827047
680.5480992
679.5149962
678.4839761
677.4556674
676.4307668
675.4100557
674.3944182
673.3848568
672.3825184
671.3887139
670.4049541
669.4329729
668.4747784
667.5326801
666.6093638
665.7079202
664.8319557
663.985618
663.1737598
662.401954
661.6767298
661.0055616
660.3971706
659.8614025
659.4094114
659.0531857
658.8062977
658.6861022
658.7228602
658.9376609
659.3536545
660.0006601
660.913941
662.1331742
663.7026403
665.6718331
668.0958767
671.0356419
674.5576499
678.7337637
683.6405643
689.3582919
695.9692528
703.5556047
712.1964496
721.9642015
732.920262
745.1101308
758.5581975
773.2625964
720.6761607
720.6332791
720.5139832
720.3249698
720.0766177
719.7717679
719.4112767
718.9976658
718.534464
718.0250758
717.4726081
716.8800471
716.2502993
715.586132
714.8901353
714.1647219
713.4121367
712.6344641
711.8336344
711.0114332
710.1695111
709.3093942
708.4324929
707.5401121
706.6334587
705.7136497
704.7817194
703.8386254
702.8852553
701.9224312
700.950916
699.9714178
698.9845952
697.9910629
696.9913965
695.9861373
694.9757967
693.9608601
692.9417904
691.9190318
690.8930122
689.8641463
688.8328385
687.799486
686.7644819
685.7282188
684.6910955
683.6535108
682.6159397
681.5788347
680.5425961
679.5077139
678.4747339
677.4442459
676.4169012
675.3934295
674.3746551
673.3615133
672.3550724
671.3565556
670.367369
669.3891298
668.4237057
667.4732507
666.5402607
665.6276214
664.7386817
663.8773213
663.0480404
662.2560606
661.5074102
660.8090826
660.1690154
659.5963841
659.1012035
658.6954546
658.3923225
658.2125364
658.178607
658.3100151
658.6309409
659.1709153
659.9637866
661.0478748
662.4665755
664.2688732
666.5097499
669.2504859
672.5588001
676.5087691
681.1804367
686.6589918
693.0333834
700.3942373
708.8309541
718.4278944
729.2596256
741.3853112
754.8424734
769.6405426
720.9261818
720.8816989
720.7579611
720.562086
720.305138
719.9903958
719.6190504
719.1939712
718.7190196
718.1978748
717.6338538
717.0300992
716.3896285
715.7152809
715.0096864
714.2752727
713.5142815
712.7287815
711.9206789
711.0917304
710.2435546
709.3776447
708.4953787
707.59803
706.6867757
705.7627049
704.8268257
703.8800713
702.923306
701.95733
700.9828847
700.0006572
699.0112859
698.0153656
697.0134535
696.0060735
694.9937207
693.9768656
692.9559569
691.9314253
690.9036857
689.8731399
688.8401783
687.8051836
686.7685328
685.7306014
684.6917682
683.6524116
682.6129677
681.5738695
680.5355008
679.4983015
678.4627711
677.4294492
676.3989281
675.3718693
674.3490196
673.3312261
672.3194559
671.3148165
670.3185801
669.3322097
668.3573921