/*--------------------------------*- C++ -*----------------------------------*\
  =========                 |
  \\      /  F ield         | OpenFOAM: The Open Source CFD Toolbox
   \\    /   O peration     | Website:  https://openfoam.org
    \\  /    A nd           | Version:  8
     \\/     M anipulation  |
\*---------------------------------------------------------------------------*/
FoamFile
{
    version     2.0;
    format      ascii;
    class       surfaceScalarField;
    location    "3000";
    object      phi;
}
// * * * * * * * * * * * * * * * * * * * * * * * * * * * * * * * * * * * * * //

dimensions      [0 3 -1 0 0 0 0];

internalField   nonuniform List<scalar> 
79320
(
6.247348768e-06
2.651231666e-09
6.243202129e-06
4.146639013e-09
6.238326062e-06
4.876067671e-09
6.232858487e-06
5.467574759e-09
6.226860781e-06
5.997706291e-09
6.220414816e-06
6.445964747e-09
6.213591306e-06
6.823509562e-09
6.206433998e-06
7.157308549e-09
6.198981876e-06
7.452121462e-09
6.191265555e-06
7.716321691e-09
6.183314797e-06
7.950757239e-09
6.175152289e-06
8.162508715e-09
6.16680068e-06
8.351608497e-09
6.158283853e-06
8.516827146e-09
6.149617103e-06
8.666750311e-09
6.140817348e-06
8.799754881e-09
6.131901116e-06
8.916231637e-09
6.122883396e-06
9.017719711e-09
6.113777918e-06
9.105478823e-09
6.104596512e-06
9.181405555e-09
6.095351167e-06
9.245344688e-09
6.086053945e-06
9.297222672e-09
6.076713698e-06
9.34024659e-09
6.067338662e-06
9.375036211e-09
6.05793716e-06
9.401501548e-09
6.048517377e-06
9.419783332e-09
6.039086764e-06
9.430612827e-09
6.029652142e-06
9.434622577e-09
6.020219684e-06
9.432457185e-09
6.010795307e-06
9.424376994e-09
6.001385055e-06
9.410252843e-09
5.991994487e-06
9.390567632e-09
5.982628237e-06
9.36624995e-09
5.973290341e-06
9.337896061e-09
5.963984179e-06
9.306161627e-09
5.954713114e-06
9.271065781e-09
5.945480633e-06
9.232480044e-09
5.936289381e-06
9.19125295e-09
5.927141439e-06
9.147941683e-09
5.918038898e-06
9.102540662e-09
5.908983863e-06
9.055035571e-09
5.899978279e-06
9.005583761e-09
5.891023882e-06
8.954396762e-09
5.882122223e-06
8.901659217e-09
5.873274716e-06
8.847506589e-09
5.864482592e-06
8.792124713e-09
5.855747005e-06
8.735586656e-09
5.84706902e-06
8.677984795e-09
5.838449464e-06
8.619556271e-09
5.829889147e-06
8.560316615e-09
5.821388967e-06
8.500180588e-09
5.812949863e-06
8.439103428e-09
5.804572778e-06
8.377084859e-09
5.796258568e-06
8.314210015e-09
5.788008021e-06
8.250547509e-09
5.779821903e-06
8.186117875e-09
5.771700977e-06
8.120925751e-09
5.763645969e-06
8.055008554e-09
5.755657636e-06
7.988332618e-09
5.747736938e-06
7.920698309e-09
5.739885073e-06
7.851864979e-09
5.732103445e-06
7.781627566e-09
5.724393676e-06
7.709769572e-09
5.716757656e-06
7.636019767e-09
5.709197607e-06
7.560048681e-09
5.701716137e-06
7.481470157e-09
5.694316306e-06
7.3998308e-09
5.687001707e-06
7.314598809e-09
5.679776564e-06
7.225143421e-09
5.672645814e-06
7.130750422e-09
5.665615232e-06
7.030581916e-09
5.658691533e-06
6.923698744e-09
5.651882516e-06
6.809017183e-09
5.645197853e-06
6.684663137e-09
5.638649977e-06
6.547875855e-09
5.63225266e-06
6.397316616e-09
5.626021957e-06
6.230702754e-09
5.619977109e-06
6.044848703e-09
5.614141168e-06
5.835941082e-09
5.608541747e-06
5.599420458e-09
5.603211984e-06
5.329763382e-09
5.598191735e-06
5.020249234e-09
5.59352907e-06
4.662664745e-09
5.589281876e-06
4.247194099e-09
5.585522862e-06
3.759014023e-09
5.582346783e-06
3.176078856e-09
5.579858103e-06
2.488679676e-09
5.578198274e-06
1.65982882e-09
5.577518771e-06
6.795037477e-10
5.578082201e-06
-5.634301374e-10
5.58018676e-06
-2.104559804e-09
5.584307815e-06
-4.121054576e-09
5.590917496e-06
-6.609680749e-09
5.600779942e-06
-9.862446046e-09
5.615012809e-06
-1.423286692e-08
5.635325358e-06
-2.031254882e-08
5.664596651e-06
-2.927129318e-08
5.707336191e-06
-4.273954014e-08
5.77491898e-06
-6.758278938e-08
-1.022781807e-07
5.877197161e-06
6.25134126e-06
1.309971279e-09
6.252386227e-06
3.101672461e-09
6.25311641e-06
4.145884978e-09
6.253619148e-06
4.964836155e-09
6.253982062e-06
5.634792605e-09
6.254236138e-06
6.191888468e-09
6.254395176e-06
6.664471752e-09
6.254470608e-06
7.081876303e-09
6.254472127e-06
7.450602906e-09
6.254402793e-06
7.785655536e-09
6.254264137e-06
8.089413018e-09
6.254058084e-06
8.368561445e-09
6.253792027e-06
8.61766583e-09
6.253470103e-06
8.838750848e-09
6.253089292e-06
9.047561819e-09
6.252647702e-06
9.241344995e-09
6.252145021e-06
9.418912082e-09
6.251581404e-06
9.581337536e-09
6.250957619e-06
9.729263172e-09
6.25027308e-06
9.865945187e-09
6.249525987e-06
9.992437073e-09
6.24871641e-06
1.010680027e-08
6.247845379e-06
1.021127697e-08
6.246913514e-06
1.030690134e-08
6.245921186e-06
1.03938294e-08
6.244868862e-06
1.047210744e-08
6.243757028e-06
1.054244734e-08
6.242586321e-06
1.060532916e-08
6.241357247e-06
1.066153119e-08
6.24007067e-06
1.07109536e-08
6.238728185e-06
1.075273836e-08
6.237331164e-06
1.078758799e-08
6.23588058e-06
1.081683422e-08
6.234377842e-06
1.084063404e-08
6.232823133e-06
1.086087057e-08
6.231216983e-06
1.087721597e-08
6.22956131e-06
1.088815266e-08
6.227856968e-06
1.0895595e-08
6.226104736e-06
1.090017373e-08
6.224305704e-06
1.090157273e-08
6.222461043e-06
1.089969729e-08
6.220571908e-06
1.089471856e-08
6.218639433e-06
1.088687187e-08
6.216664766e-06
1.087632619e-08
6.214649064e-06
1.086320857e-08
6.212593385e-06
1.084780326e-08
6.210499177e-06
1.082979503e-08
6.208367561e-06
1.080960076e-08
6.206199364e-06
1.078775297e-08
6.203995864e-06
1.076381707e-08
6.201758321e-06
1.073772378e-08
6.199488223e-06
1.070920052e-08
6.197187181e-06
1.067812697e-08
6.194856694e-06
1.064469783e-08
6.192498222e-06
1.060901945e-08
6.190113252e-06
1.057108786e-08
6.187703357e-06
1.053081988e-08
6.185269932e-06
1.048843401e-08
6.182814349e-06
1.044391572e-08
6.180338267e-06
1.039678009e-08
6.177843607e-06
1.034652513e-08
6.175332485e-06
1.029274927e-08
6.172807231e-06
1.023502435e-08
6.170270421e-06
1.017282965e-08
6.16772492e-06
1.010554906e-08
6.165173928e-06
1.003246254e-08
6.162621037e-06
9.952721544e-09
6.160070307e-06
9.86532878e-09
6.157526354e-06
9.769096257e-09
6.15499443e-06
9.662674606e-09
6.152480676e-06
9.544336032e-09
6.14999185e-06
9.412525107e-09
6.14753482e-06
9.266047071e-09
6.145117883e-06
9.1016e-09
6.142754248e-06
8.911510616e-09
6.140456641e-06
8.694923462e-09
6.138240009e-06
8.447335289e-09
6.136121913e-06
8.162944274e-09
6.134123073e-06
7.834781727e-09
6.132268133e-06
7.454359877e-09
6.130586453e-06
7.011443735e-09
6.129113408e-06
6.493293774e-09
6.127891634e-06
5.884438691e-09
6.126971313e-06
5.167515402e-09
6.12641241e-06
4.317917413e-09
6.126279816e-06
3.308672412e-09
6.126666718e-06
2.101777755e-09
6.12768481e-06
6.417371638e-10
6.129502128e-06
-1.137814403e-09
6.132275086e-06
-3.336388772e-09
6.13624096e-06
-6.070433287e-09
6.141629665e-06
-9.509759445e-09
6.148864296e-06
-1.384431164e-08
6.158433213e-06
-1.943136317e-08
6.170983761e-06
-2.678341515e-08
6.187397418e-06
-3.672620633e-08
6.208796953e-06
-5.067082753e-08
6.236452231e-06
-7.03948185e-08
6.268235658e-06
-9.936621673e-08
-1.384324539e-07
6.304389932e-06
6.250458511e-06
8.514600787e-10
6.251221185e-06
2.338998446e-09
6.251976231e-06
3.390839012e-09
6.25272436e-06
4.21670723e-09
6.253441166e-06
4.917986495e-09
6.254113019e-06
5.520035529e-09
6.254740594e-06
6.03689718e-09
6.255333211e-06
6.489258697e-09
6.255895974e-06
6.887840446e-09
6.256435326e-06
7.246303743e-09
6.256957829e-06
7.566909756e-09
6.257475312e-06
7.851078778e-09
6.257978577e-06
8.114400466e-09
6.258454009e-06
8.36331886e-09
6.258908585e-06
8.592985649e-09
6.259347005e-06
8.802925283e-09
6.259770818e-06
8.995098551e-09
6.260180726e-06
9.171430232e-09
6.26057678e-06
9.333208336e-09
6.260958368e-06
9.48435785e-09
6.261326103e-06
9.624701721e-09
6.261681238e-06
9.751665349e-09
6.262024767e-06
9.867748494e-09
6.262357174e-06
9.974494e-09
6.262678379e-06
1.007262403e-08
6.262987871e-06
1.0162616e-08
6.263284779e-06
1.024553913e-08
6.263567691e-06
1.032241696e-08
6.263835652e-06
1.039356996e-08
6.264091198e-06
1.045540838e-08
6.264336045e-06
1.050789088e-08
6.264569058e-06
1.055457525e-08
6.264789186e-06
1.059670565e-08
6.264996029e-06
1.063379128e-08
6.265189709e-06
1.066719028e-08
6.265370538e-06
1.069638692e-08
6.265537222e-06
1.072146943e-08
6.265687881e-06
1.074493613e-08
6.265822197e-06
1.076585692e-08
6.265940562e-06
1.078320807e-08
6.266043274e-06
1.079698481e-08
6.266130511e-06
1.080748248e-08
6.266202361e-06
1.081502103e-08
6.266258917e-06
1.081977018e-08
6.266300257e-06
1.08218687e-08
6.266326745e-06
1.082131598e-08
6.266337787e-06
1.081875221e-08
6.266333284e-06
1.081410449e-08
6.266314126e-06
1.080691045e-08
6.26628028e-06
1.079766349e-08
6.266231636e-06
1.078636773e-08
6.266168731e-06
1.077210487e-08
6.266092216e-06
1.075464249e-08
6.266002533e-06
1.073438045e-08
6.265900199e-06
1.071135369e-08
6.265785646e-06
1.068564109e-08
6.265659647e-06
1.065681903e-08
6.265522529e-06
1.062555145e-08
6.265374689e-06
1.059175623e-08
6.265216932e-06
1.055453664e-08
6.265050253e-06
1.051320419e-08
6.26487579e-06
1.046721226e-08
6.264694897e-06
1.041591791e-08
6.264509179e-06
1.03585477e-08
6.26432051e-06
1.029421744e-08
6.264131064e-06
1.022190878e-08
6.263943365e-06
1.014042004e-08
6.263760344e-06
1.004835023e-08
6.263585443e-06
9.943997642e-09
6.263422332e-06
9.825785082e-09
6.263276227e-06
9.690441429e-09
6.263152707e-06
9.536044649e-09
6.263058403e-06
9.360351223e-09
6.263001016e-06
9.158986844e-09
6.262989402e-06
8.923125192e-09
6.263034029e-06
8.650295859e-09
6.263147285e-06
8.334079268e-09
6.263343816e-06
7.966413981e-09
6.263640966e-06
7.537631231e-09
6.26405958e-06
7.03574588e-09
6.264624213e-06
6.446810597e-09
6.265364052e-06
5.753454516e-09
6.266314345e-06
4.934146511e-09
6.267515697e-06
3.96616269e-09
6.269015652e-06
2.8179623e-09
6.270871634e-06
1.45269106e-09
6.273157266e-06
-1.838545421e-10
6.275960237e-06
-2.161233822e-09
6.279389208e-06
-4.566785484e-09
6.283579733e-06
-7.526913417e-09
6.288713282e-06
-1.120398287e-08
6.294961968e-06
-1.575844522e-08
6.302578307e-06
-2.146065056e-08
6.311774445e-06
-2.862750111e-08
6.322772317e-06
-3.778128683e-08
6.335814256e-06
-4.976814607e-08
6.350630265e-06
-6.548683622e-08
6.366389366e-06
-8.615391894e-08
6.381104919e-06
-1.140817699e-07
-1.502807249e-07
6.39295319e-06
6.250225786e-06
6.256742848e-10
6.250749043e-06
1.815741326e-09
6.251350069e-06
2.789812757e-09
6.251975831e-06
3.590945302e-09
6.252614211e-06
4.279606879e-09
6.253253e-06
4.881246419e-09
6.253884098e-06
5.40579894e-09
6.254506621e-06
5.866736161e-09
6.255118936e-06
6.275524683e-09
6.255723708e-06
6.641532041e-09
6.256319563e-06
6.971054929e-09
6.256903612e-06
7.267029791e-09
6.257481663e-06
7.536349707e-09
6.258058766e-06
7.786215734e-09
6.25863379e-06
8.017961399e-09
6.259205372e-06
8.231342961e-09
6.259773164e-06
8.427307228e-09
6.260337123e-06
8.607470822e-09
6.260896974e-06
8.773357849e-09
6.261454493e-06
8.926838769e-09
6.262010289e-06
9.068904889e-09
6.262562887e-06
9.199068234e-09
6.263112321e-06
9.318313823e-09
6.263659095e-06
9.427720048e-09
6.264203206e-06
9.528513071e-09
6.264744929e-06
9.620893383e-09
6.265284538e-06
9.70592952e-09
6.265824367e-06
9.782588771e-09
6.266368668e-06
9.849268219e-09
6.26691334e-06
9.910737152e-09
6.267451013e-06
9.970217146e-09
6.267980598e-06
1.002499022e-08
6.268503184e-06
1.007411985e-08
6.269018751e-06
1.011822448e-08
6.269528457e-06
1.015748464e-08
6.270030656e-06
1.019418782e-08
6.270523361e-06
1.022876369e-08
6.271010214e-06
1.025808323e-08
6.271493719e-06
1.028235181e-08
6.271974041e-06
1.030288603e-08
6.272450799e-06
1.032022737e-08
6.272923678e-06
1.033460372e-08
6.273392556e-06
1.034614231e-08
6.273857345e-06
1.035498167e-08
6.274317956e-06
1.036125725e-08
6.274774154e-06
1.036511843e-08
6.275226192e-06
1.036671451e-08
6.27567389e-06
1.036640637e-08
6.276116484e-06
1.036431594e-08
6.276553352e-06
1.036079531e-08
6.276985498e-06
1.035422163e-08
6.277414881e-06
1.03427226e-08
6.27784152e-06
1.032800356e-08
6.278265172e-06
1.031072828e-08
6.278686126e-06
1.029039905e-08
6.279105626e-06
1.026614174e-08
6.279523163e-06
1.023928137e-08
6.27993713e-06
1.021158488e-08
6.280348055e-06
1.018083111e-08
6.28075709e-06
1.014550184e-08
6.28116535e-06
1.010494397e-08
6.281573985e-06
1.005857787e-08
6.281984249e-06
1.000565334e-08
6.28239756e-06
9.945236828e-09
6.282815548e-06
9.876229448e-09
6.283240066e-06
9.797391176e-09
6.283673262e-06
9.707224137e-09
6.284117624e-06
9.603987657e-09
6.284575999e-06
9.485623106e-09
6.285051673e-06
9.350110321e-09
6.28554875e-06
9.193364645e-09
6.286072221e-06
9.012573695e-09
6.28662871e-06
8.803862743e-09
6.287225665e-06
8.562031646e-09
6.287868435e-06
8.280354523e-09
6.288566091e-06
7.95264003e-09
6.28932915e-06
7.57102038e-09
6.290169931e-06
7.125632975e-09
6.291102979e-06
6.604583166e-09
6.292145739e-06
5.992985698e-09
6.293320508e-06
5.272042347e-09
6.294657629e-06
4.416333115e-09
6.296183468e-06
3.408307623e-09
6.297927387e-06
2.222244057e-09
6.299919336e-06
8.260132264e-10
6.302202398e-06
-8.303708063e-10
6.304842647e-06
-2.824103622e-09
6.307905706e-06
-5.224293562e-09
6.311458444e-06
-8.119523274e-09
6.31554661e-06
-1.161507906e-08
6.320168597e-06
-1.582597013e-08
6.325414181e-06
-2.100402931e-08
6.331363828e-06
-2.741029736e-08
6.338202697e-06
-3.546637044e-08
6.346077223e-06
-4.565581247e-08
6.35474227e-06
-5.843319302e-08
6.363807186e-06
-7.455175232e-08
6.372540857e-06
-9.488759023e-08
6.379020748e-06
-1.205616602e-07
-1.5223424e-07
6.380974263e-06
6.250131554e-06
4.941205951e-10
6.250474529e-06
1.472766247e-09
6.250925091e-06
2.339250508e-09
6.251431886e-06
3.084149987e-09
6.251976907e-06
3.734586591e-09
6.252547127e-06
4.311026317e-09
6.253130849e-06
4.822076541e-09
6.25372168e-06
5.275905548e-09
6.254316044e-06
5.681159957e-09
6.254912376e-06
6.045200734e-09
6.255509535e-06
6.373895506e-09
6.256105287e-06
6.671278044e-09
6.256699697e-06
6.94193941e-09
6.257295066e-06
7.190847324e-09
6.257892419e-06
7.420607769e-09
6.258491563e-06
7.632199406e-09
6.259092067e-06
7.826803063e-09
6.259693613e-06
8.005925303e-09
6.260295941e-06
8.171029569e-09
6.260899366e-06
8.32341402e-09
6.261504112e-06
8.464158858e-09
6.262109442e-06
8.593738292e-09
6.26271489e-06
8.712865734e-09
6.263320221e-06
8.822388855e-09
6.263925566e-06
8.923168241e-09
6.264530777e-06
9.015682392e-09
6.26513629e-06
9.100415743e-09
6.265741259e-06
9.177620014e-09
6.266343555e-06
9.24697264e-09
6.266944545e-06
9.309746834e-09
6.267546409e-06
9.368353058e-09
6.268148441e-06
9.422957877e-09
6.268749595e-06
9.472966797e-09
6.269349289e-06
9.518529791e-09
6.269946886e-06
9.559888018e-09
6.270543312e-06
9.597761484e-09
6.271139351e-06
9.632724834e-09
6.271733628e-06
9.663806366e-09
6.27232542e-06
9.690559892e-09
6.272914862e-06
9.713443418e-09
6.273502113e-06
9.732976588e-09
6.274087259e-06
9.749457771e-09
6.274670328e-06
9.763073795e-09
6.275251361e-06
9.773948083e-09
6.275830382e-06
9.782236477e-09
6.276407493e-06
9.788007025e-09
6.276982814e-06
9.791394413e-09
6.277556857e-06
9.792363332e-09
6.278130318e-06
9.790854289e-09
6.278706237e-06
9.784876741e-09
6.279284881e-06
9.775577239e-09
6.279861228e-06
9.766376101e-09
6.280434005e-06
9.755225901e-09
6.281003306e-06
9.741427683e-09
6.28156992e-06
9.723785485e-09
6.282131309e-06
9.704752106e-09
6.282686399e-06
9.684191502e-09
6.283241035e-06
9.656948748e-09
6.283797765e-06
9.624101596e-09
6.284357238e-06
9.586028997e-09
6.284919968e-06
9.542213633e-09
6.285486626e-06
9.491919899e-09
6.286058005e-06
9.43427425e-09
6.286635084e-06
9.368158209e-09
6.287219099e-06
9.292214145e-09
6.28781155e-06
9.20493978e-09
6.288414225e-06
9.104548975e-09
6.289029263e-06
8.988949641e-09
6.289659219e-06
8.855667304e-09
6.290307466e-06
8.701863059e-09
6.29097702e-06
8.52381076e-09
6.291672056e-06
8.317537889e-09
6.292397619e-06
8.078300169e-09
6.293159312e-06
7.800338793e-09
6.29396303e-06
7.476636406e-09
6.294816487e-06
7.099182819e-09
6.295728861e-06
6.658646448e-09
6.296710676e-06
6.143818118e-09
6.297774133e-06
5.541125438e-09
6.298931898e-06
4.835221539e-09
6.300198541e-06
4.005399355e-09
6.301572957e-06
3.041916172e-09
6.303070971e-06
1.910294556e-09
6.304723172e-06
5.700429432e-10
6.30658002e-06
-1.030835216e-09
6.308696656e-06
-2.947006268e-09
6.311087789e-06
-5.215236718e-09
6.31377883e-06
-7.915335343e-09
6.316804596e-06
-1.114528912e-08
6.320211117e-06
-1.502159953e-08
6.324067323e-06
-1.968217645e-08
6.328389507e-06
-2.532621368e-08
6.333185564e-06
-3.220635422e-08
6.33835665e-06
-4.063745638e-08
6.343711654e-06
-5.101081627e-08
6.349012696e-06
-6.373423541e-08
6.353748484e-06
-7.92875401e-08
6.357051561e-06
-9.819066735e-08
6.357434458e-06
-1.209445572e-07
-1.47718756e-07
6.352918974e-06
6.250083971e-06
4.10150061e-10
6.25032626e-06
1.23047724e-09
6.250675986e-06
1.989523887e-09
6.251093127e-06
2.667009205e-09
6.251557219e-06
3.270494478e-09
6.252055982e-06
3.812262896e-09
6.252579169e-06
4.29888991e-09
6.253119606e-06
4.735468575e-09
6.2536728e-06
5.127965981e-09
6.254235828e-06
5.482172939e-09
6.254806698e-06
5.803025057e-09
6.25538346e-06
6.094516432e-09
6.255965078e-06
6.360320884e-09
6.256551869e-06
6.604057013e-09
6.257144139e-06
6.828337195e-09
6.257741554e-06
7.034784605e-09
6.258343527e-06
7.224830524e-09
6.25894957e-06
7.399882234e-09
6.25955932e-06
7.561279385e-09
6.260172524e-06
7.710209644e-09
6.260789009e-06
7.847674307e-09
6.261408347e-06
7.974400255e-09
6.262030123e-06
8.091089554e-09
6.262654012e-06
8.198499814e-09
6.263279832e-06
8.297348244e-09
6.263907322e-06
8.388192059e-09
6.264536236e-06
8.471502068e-09
6.265166191e-06
8.547664647e-09
6.265796198e-06
8.616966023e-09
6.266425802e-06
8.680142979e-09
6.267055745e-06
8.738410404e-09
6.267686372e-06
8.792330848e-09
6.268317482e-06
8.841856866e-09
6.268948897e-06
8.887114032e-09
6.269580374e-06
8.928411038e-09
6.270212021e-06
8.966114837e-09
6.270844216e-06
9.000529746e-09
6.271476596e-06
9.03142627e-09
6.27210854e-06
9.05861623e-09
6.272739677e-06
9.082306479e-09
6.273369866e-06
9.102786852e-09
6.273999058e-06
9.12026646e-09
6.274627221e-06
9.134910536e-09
6.27525434e-06
9.146829027e-09
6.275880435e-06
9.156141282e-09
6.276505547e-06
9.16289549e-09
6.277129789e-06
9.16715262e-09
6.277753325e-06
9.168827077e-09
6.278376347e-06
9.167832503e-09
6.278997551e-06
9.163672164e-09
6.279616931e-06
9.15619784e-09
6.280236564e-06
9.146742959e-09
6.280856394e-06
9.13539583e-09
6.281476261e-06
9.121560798e-09
6.282095388e-06
9.104658706e-09
6.282715322e-06
9.084817969e-09
6.283337237e-06
9.062276143e-09
6.283959315e-06
9.034870665e-09
6.284581836e-06
9.001580449e-09
6.285205586e-06
8.962278858e-09
6.285831305e-06
8.916494722e-09
6.28645982e-06
8.863405247e-09
6.287092085e-06
8.802009294e-09
6.287729143e-06
8.731100437e-09
6.288372137e-06
8.649220231e-09
6.289022412e-06
8.554664007e-09
6.289681536e-06
8.445425278e-09
6.290351339e-06
8.319146985e-09
6.291033956e-06
8.173049812e-09
6.29173194e-06
8.003879515e-09
6.292448024e-06
7.807726515e-09
6.293185527e-06
7.580035074e-09
6.293948341e-06
7.31548625e-09
6.294740922e-06
7.007757857e-09
6.295568258e-06
6.64929991e-09
6.296436146e-06
6.231294496e-09
6.297351323e-06
5.743469674e-09
6.298321465e-06
5.173676341e-09
6.299355149e-06
4.507441048e-09
6.300462327e-06
3.72804394e-09
6.301652769e-06
2.814957831e-09
6.302947669e-06
1.747015764e-09
6.304362805e-06
4.951580611e-10
6.30591342e-06
-9.805717758e-10
6.307609157e-06
-2.726571908e-09
6.309460646e-06
-4.798495757e-09
6.311496909e-06
-7.25149916e-09
6.313738646e-06
-1.015707238e-08
6.316201323e-06
-1.36079667e-08
6.318896173e-06
-1.771644945e-08
6.321830489e-06
-2.261649223e-08
6.324982886e-06
-2.847861066e-08
6.328290445e-06
-3.551391337e-08
6.33162449e-06
-4.397150112e-08
6.334752853e-06
-5.413917937e-08
6.337332541e-06
-6.631392371e-08
6.338839628e-06
-8.079462687e-08
6.338502739e-06
-9.785377792e-08
6.335218249e-06
-1.176600674e-07
-1.401117916e-07
6.327611284e-06
6.250060985e-06
3.491647871e-10
6.25024357e-06
1.047892809e-09
6.250521932e-06
1.711161927e-09
6.250869024e-06
2.319916385e-09
6.251267126e-06
2.872392794e-09
6.25170509e-06
3.374299348e-09
6.252174007e-06
3.82997256e-09
6.252666782e-06
4.242693687e-09
6.253178372e-06
4.616375908e-09
6.253705222e-06
4.955322986e-09
6.254244768e-06
5.263479086e-09
6.254794976e-06
5.544308215e-09
6.255354476e-06
5.800820777e-09
6.25592261e-06
6.035923366e-09
6.256498912e-06
6.252035603e-09
6.257082769e-06
6.45092738e-09
6.257673548e-06
6.634051065e-09
6.258270675e-06
6.802755026e-09
6.258873663e-06
6.958291381e-09
6.259482098e-06
7.101774737e-09
6.260095604e-06
7.234168667e-09
6.260713732e-06
7.35627249e-09
6.261336016e-06
7.468805072e-09
6.261962048e-06
7.572468002e-09
6.262591477e-06
7.667918953e-09
6.263223945e-06
7.755724781e-09
6.263859071e-06
7.836375396e-09
6.264496422e-06
7.910314181e-09
6.265135423e-06
7.977965206e-09
6.26577566e-06
8.039905273e-09
6.266417202e-06
8.09686834e-09
6.267060172e-06
8.149361572e-09
6.26770444e-06
8.197588204e-09
6.268349816e-06
8.241738691e-09
6.268996149e-06
8.282077166e-09
6.269643393e-06
8.318871761e-09
6.270291594e-06
8.352328755e-09
6.27094056e-06
8.382459676e-09
6.271589945e-06
8.409231129e-09
6.272239487e-06
8.432765038e-09
6.272889006e-06
8.453267974e-09
6.273538372e-06
8.470899524e-09
6.274187497e-06
8.485785665e-09
6.274836302e-06
8.498024715e-09
6.275484743e-06
8.507699865e-09
6.276132787e-06
8.514851759e-09
6.276780447e-06
8.519492485e-09
6.2774277e-06
8.52157444e-09
6.278074523e-06
8.521009478e-09
6.278720574e-06
8.517620285e-09
6.279365459e-06
8.511313499e-09
6.280009712e-06
8.502490162e-09
6.280653825e-06
8.491282526e-09
6.28129803e-06
8.477356104e-09
6.281942395e-06
8.46029382e-09
6.282587373e-06
8.43983988e-09
6.283233856e-06
8.415793e-09
6.283881635e-06
8.387091039e-09
6.284530544e-06
8.352671948e-09
6.285180845e-06
8.311977364e-09
6.285832966e-06
8.264374544e-09
6.286487432e-06
8.208938905e-09
6.287144906e-06
8.144535528e-09
6.287806172e-06
8.06983406e-09
6.288472132e-06
7.983259853e-09
6.289143839e-06
7.882957554e-09
6.289822516e-06
7.766747995e-09
6.29050959e-06
7.632073162e-09
6.291206713e-06
7.475926919e-09
6.291915811e-06
7.294781253e-09
6.292639069e-06
7.084468704e-09
6.293379007e-06
6.840096532e-09
6.294138549e-06
6.555944622e-09
6.29492103e-06
6.225276587e-09
6.295730188e-06
5.840141824e-09
6.296570258e-06
5.391224685e-09
6.297446098e-06
4.867630424e-09
6.298363218e-06
4.256555847e-09
6.299327766e-06
3.542892867e-09
6.300346838e-06
2.70897204e-09
6.301428051e-06
1.733744941e-09
6.302582024e-06
5.93043121e-10
6.303819899e-06
-7.42717577e-10
6.305150518e-06
-2.3111907e-09
6.306580982e-06
-4.157035782e-09
6.308115079e-06
-6.332592929e-09
6.309759421e-06
-8.895841199e-09
6.311518014e-06
-1.191566555e-08
6.31338742e-06
-1.547737263e-08
6.315354049e-06
-1.968307795e-08
6.317390416e-06
-2.465285989e-08
6.319441747e-06
-3.052994164e-08
6.321410263e-06
-3.748242902e-08
6.323137883e-06
-4.569912055e-08
6.324380956e-06
-5.538225306e-08
6.324795684e-06
-6.672865187e-08
6.323909828e-06
-7.990877013e-08
6.321089612e-06
-9.50335622e-08
6.315523643e-06
-1.120940989e-07
-1.308658991e-07
6.306277751e-06
6.25004806e-06
3.011043729e-10
6.250192891e-06
9.030620906e-10
6.250421216e-06
1.482836898e-09
6.250715709e-06
2.025423801e-09
6.251062344e-06
2.525757826e-09
6.251451235e-06
2.985407836e-09
6.25187458e-06
3.406627747e-09
6.252325835e-06
3.791438811e-09
6.252799961e-06
4.142250294e-09
6.253293185e-06
4.462098885e-09
6.253802682e-06
4.753981593e-09
6.254326241e-06
5.020749108e-09
6.254862112e-06
5.264949719e-09
6.255409097e-06
5.488939076e-09
6.255966348e-06
5.694783949e-09
6.256533089e-06
5.884186642e-09
6.257108561e-06
6.05857884e-09
6.257692074e-06
6.219242314e-09
6.258283018e-06
6.367346955e-09
6.258880853e-06
6.503940424e-09
6.259485077e-06
6.629943879e-09
6.260095192e-06
6.746157746e-09
6.2607107e-06
6.853297006e-09
6.261331141e-06
6.952027702e-09
6.261956091e-06
7.042968119e-09
6.262585144e-06
7.126672433e-09
6.263217884e-06
7.203635542e-09
6.263853882e-06
7.27431616e-09
6.264492686e-06
7.339160408e-09
6.265133937e-06
7.398654284e-09
6.265777479e-06
7.453326907e-09
6.26642322e-06
7.503620252e-09
6.267070988e-06
7.549820135e-09
6.267720578e-06
7.592148429e-09
6.26837182e-06
7.630835246e-09
6.269024589e-06
7.666102703e-09
6.26967879e-06
7.698128259e-09
6.270334246e-06
7.727003876e-09
6.270990697e-06
7.752780086e-09
6.271647906e-06
7.775555914e-09
6.272305697e-06
7.795477135e-09
6.272963919e-06
7.812677477e-09
6.273622443e-06
7.827261568e-09
6.274281158e-06
7.839309238e-09
6.274939979e-06
7.848879311e-09
6.275598829e-06
7.856001478e-09
6.276257645e-06
7.860676612e-09
6.276916352e-06
7.862867947e-09
6.277574856e-06
7.862504592e-09
6.278232989e-06
7.859487432e-09
6.278890549e-06
7.853753676e-09
6.279547671e-06
7.845368013e-09
6.28020465e-06
7.834303577e-09
6.280861684e-06
7.820322552e-09
6.281518896e-06
7.80308205e-09
6.282176513e-06
7.782222383e-09
6.282834974e-06
7.757331949e-09
6.283494394e-06
7.727671117e-09
6.28415471e-06
7.692355519e-09
6.284816057e-06
7.650630593e-09
6.285478724e-06
7.601707719e-09
6.286143071e-06
7.544592391e-09
6.28680953e-06
7.478076123e-09
6.287478624e-06
7.400740263e-09
6.288150965e-06
7.310919008e-09
6.288827269e-06
7.206652737e-09
6.289508377e-06
7.08564002e-09
6.290195267e-06
6.945183673e-09
6.29088907e-06
6.782124116e-09
6.291591092e-06
6.592758544e-09
6.292302822e-06
6.372738825e-09
6.293025948e-06
6.11697033e-09
6.293762398e-06
5.819495317e-09
6.294514343e-06
5.47333119e-09
6.295284199e-06
5.070286502e-09
6.296074649e-06
4.600773691e-09
6.296888695e-06
4.053584827e-09
6.29772965e-06
3.415601163e-09
6.298601107e-06
2.671435634e-09
6.299507003e-06
1.803076208e-09
6.300451426e-06
7.893216756e-10
6.301439107e-06
-3.946375021e-10
6.302474732e-06
-1.778343278e-09
6.303561043e-06
-3.397500968e-09
6.304698221e-06
-5.29421367e-09
6.305882897e-06
-7.517269497e-09
6.307109326e-06
-1.012227032e-08
6.308367433e-06
-1.317377202e-08
6.30963825e-06
-1.674818944e-08
6.310889897e-06
-2.09347253e-08
6.312072681e-06
-2.583564424e-08
6.313109933e-06
-3.156719364e-08
6.313886179e-06
-3.825867509e-08
6.314234353e-06
-4.60472947e-08
6.313921039e-06
-5.50689386e-08
6.312634908e-06
-6.544252063e-08
6.309974723e-06
-7.724858553e-08
6.30544107e-06
-9.049990885e-08
6.298446262e-06
-1.05099291e-07
-1.207841044e-07
6.288364467e-06
6.250039891e-06
2.612132637e-10
6.250159829e-06
7.831239929e-10
6.250352714e-06
1.289951952e-09
6.250607523e-06
1.770615419e-09
6.250913572e-06
2.219708216e-09
6.251262547e-06
2.636432731e-09
6.251647793e-06
3.021382271e-09
6.252063583e-06
3.375648791e-09
6.252505106e-06
3.70072686e-09
6.252968558e-06
3.998647266e-09
6.253450926e-06
4.271612994e-09
6.253949861e-06
4.521814446e-09
6.254463479e-06
4.75133214e-09
6.254990305e-06
4.962112942e-09
6.255529172e-06
5.155916494e-09
6.256079083e-06
5.334276274e-09
6.256639137e-06
5.498524055e-09
6.25720853e-06
5.649849704e-09
6.257786543e-06
5.789333755e-09
6.258372534e-06
5.917950026e-09
6.258965911e-06
6.036566256e-09
6.259566117e-06
6.145952389e-09
6.260172614e-06
6.246799624e-09
6.2607849e-06
6.339741483e-09
6.261402507e-06
6.425361609e-09
6.262024988e-06
6.504191413e-09
6.262651909e-06
6.576714222e-09
6.263282846e-06
6.643379334e-09
6.263917389e-06
6.704617232e-09
6.264555185e-06
6.760857882e-09
6.265195981e-06
6.81253115e-09
6.265839582e-06
6.860018949e-09
6.266485787e-06
6.903615809e-09
6.267134379e-06
6.9435562e-09
6.267785159e-06
6.980055634e-09
6.268437948e-06
7.013312967e-09
6.269092583e-06
7.043493464e-09
6.269748872e-06
7.070715058e-09
6.270406587e-06
7.095064926e-09
6.271065504e-06
7.116638563e-09
6.271725432e-06
7.135549533e-09
6.272386204e-06
7.151905868e-09
6.273047671e-06
7.165794297e-09
6.273709701e-06
7.17727967e-09
6.274372174e-06
7.186406111e-09
6.275034982e-06
7.193193395e-09
6.275698024e-06
7.197634756e-09
6.276361197e-06
7.199694965e-09
6.277024391e-06
7.199310673e-09
6.27768747e-06
7.196408018e-09
6.278350318e-06
7.190905693e-09
6.279012951e-06
7.182735053e-09
6.279675472e-06
7.171782328e-09
6.280337974e-06
7.157820634e-09
6.281000528e-06
7.140528191e-09
6.281663243e-06
7.119507722e-09
6.282326295e-06
7.094280028e-09
6.282989765e-06
7.064200211e-09
6.283653636e-06
7.02848496e-09
6.284317948e-06
6.98631861e-09
6.284982834e-06
6.936822022e-09
6.285648474e-06
6.878952332e-09
6.286315088e-06
6.811462103e-09
6.286982946e-06
6.732881874e-09
6.287652371e-06
6.641493711e-09
6.288323745e-06
6.535279224e-09
6.288997515e-06
6.411870089e-09
6.289674201e-06
6.26849737e-09
6.290354398e-06
6.101927693e-09
6.291038777e-06
5.908379337e-09
6.291728093e-06
5.68342265e-09
6.292423181e-06
5.421882632e-09
6.293124957e-06
5.117718736e-09
6.293834417e-06
4.763871665e-09
6.294552611e-06
4.352092587e-09
6.295280632e-06
3.872752278e-09
6.296019598e-06
3.314619377e-09
6.296770606e-06
2.66459327e-09
6.297534657e-06
1.907384508e-09
6.298312574e-06
1.025159277e-09
6.29910481e-06
-2.914380383e-12
6.299911326e-06
-1.201154209e-09
6.300731046e-06
-2.598063144e-09
6.301560711e-06
-4.227166288e-09
6.302393983e-06
-6.127485658e-09
6.303220582e-06
-8.3438679e-09
6.304025685e-06
-1.092737306e-08
6.304788146e-06
-1.393623352e-08
6.305477089e-06
-1.743713198e-08
6.306048023e-06
-2.150565919e-08
6.306438222e-06
-2.622584331e-08
6.30656013e-06
-3.168910167e-08
6.306293124e-06
-3.79916695e-08
6.305474877e-06
-4.522904791e-08
6.303892883e-06
-5.348694382e-08
6.30127823e-06
-6.282786837e-08
6.297302853e-06
-7.327320808e-08
6.291583424e-06
-8.478048031e-08
6.283699275e-06
-9.721514187e-08
-1.10319009e-07
6.27323418e-06
6.250034341e-06
2.268722569e-10
6.250137224e-06
6.80241303e-10
6.25030445e-06
1.122725455e-09
6.250528951e-06
1.546114941e-09
6.25080296e-06
1.945699383e-09
6.251119688e-06
2.319704633e-09
6.251473342e-06
2.667727377e-09
6.251858945e-06
2.990046708e-09
6.252272174e-06
3.287497194e-09
6.252709422e-06
3.561399855e-09
6.253167704e-06
3.813330237e-09
6.253644573e-06
4.044945622e-09
6.254138013e-06
4.25789198e-09
6.254646376e-06
4.453750812e-09
6.255168296e-06
4.633996399e-09
6.255702608e-06
4.799964113e-09
6.256248282e-06
4.952849383e-09
6.256804401e-06
5.093731473e-09