/*--------------------------------*- C++ -*----------------------------------*\
  =========                 |
  \\      /  F ield         | OpenFOAM: The Open Source CFD Toolbox
   \\    /   O peration     | Website:  https://openfoam.org
    \\  /    A nd           | Version:  8
     \\/     M anipulation  |
\*---------------------------------------------------------------------------*/
FoamFile
{
    version     2.0;
    format      ascii;
    class       volVectorField;
    location    "3000";
    object      U;
}
// * * * * * * * * * * * * * * * * * * * * * * * * * * * * * * * * * * * * * //

dimensions      [0 1 -1 0 0 0 0];

internalField   nonuniform List<vector> 
40000
(
(99.96176461 0.01428809022 0)
(99.92387122 0.04112254731 0)
(99.85858606 0.05761481221 0)
(99.77379926 0.06961546885 0)
(99.6798272 0.07921759757 0)
(99.57965572 0.08737314807 0)
(99.47345746 0.09443896109 0)
(99.3615278 0.1006539654 0)
(99.24449887 0.1062315626 0)
(99.12300273 0.111287124 0)
(98.99754726 0.1158857075 0)
(98.86854417 0.1200361993 0)
(98.73634609 0.1237407391 0)
(98.60131413 0.1270387253 0)
(98.46376999 0.1299773554 0)
(98.32397597 0.1326068877 0)
(98.18218758 0.1349567699 0)
(98.03865674 0.1370419529 0)
(97.89361681 0.1388741304 0)
(97.7472736 0.1404698001 0)
(97.59981528 0.1418552916 0)
(97.45143114 0.1430483548 0)
(97.30229221 0.1440398906 0)
(97.15253771 0.1448218789 0)
(97.00229544 0.1454020716 0)
(96.85169494 0.1457978097 0)
(96.70086254 0.1460253623 0)
(96.54991402 0.1460976623 0)
(96.39895343 0.1460264447 0)
(96.24807649 0.1458227625 0)
(96.09737743 0.1454972658 0)
(95.94694939 0.1450609243 0)
(95.79687585 0.144523267 0)
(95.64722691 0.1438913925 0)
(95.49806124 0.1431752588 0)
(95.34943133 0.1423830166 0)
(95.20139069 0.1415175751 0)
(95.05398962 0.1405834258 0)
(94.90726742 0.1395855428 0)
(94.76125631 0.1385290562 0)
(94.61598839 0.1374202602 0)
(94.47149609 0.1362659631 0)
(94.3278095 0.1350724095 0)
(94.18495513 0.1338449019 0)
(94.04295655 0.1325879959 0)
(93.90183481 0.131305837 0)
(93.76160888 0.1300012057 0)
(93.62229641 0.1286781696 0)
(93.48391273 0.1273409365 0)
(93.34647084 0.1259906607 0)
(93.20998383 0.12462803 0)
(93.07446616 0.1232536951 0)
(92.93993311 0.1218685992 0)
(92.80639936 0.1204744449 0)
(92.67387823 0.1190730965 0)
(92.54238202 0.1176661539 0)
(92.41192282 0.1162549455 0)
(92.28251254 0.1148411914 0)
(92.15416293 0.1134260071 0)
(92.02688731 0.1120088548 0)
(91.9007025 0.1105881627 0)
(91.77562928 0.1091620696 0)
(91.65169191 0.1077284789 0)
(91.52891843 0.1062849134 0)
(91.40734148 0.10482846 0)
(91.28699944 0.1033557115 0)
(91.1679374 0.1018626547 0)
(91.05020829 0.1003445665 0)
(90.93387428 0.09879590695 0)
(90.81900828 0.09721035463 0)
(90.70569557 0.09558064652 0)
(90.59403567 0.09389960832 0)
(90.48414404 0.0921593731 0)
(90.37615831 0.09034572206 0)
(90.27025259 0.08843087424 0)
(90.16663691 0.08639155617 0)
(90.06555083 0.08420515861 0)
(89.9672738 0.08184411757 0)
(89.8721404 0.07927369076 0)
(89.78055286 0.07645041416 0)
(89.6929938 0.07332025659 0)
(89.61004281 0.06981495278 0)
(89.53239794 0.0658483032 0)
(89.4608996 0.06130787051 0)
(89.39658627 0.05603644706 0)
(89.34076192 0.04966570714 0)
(89.29501222 0.04284320214 0)
(89.26131955 0.0350329122 0)
(89.24195365 0.02689628979 0)
(89.24015832 0.01516711832 0)
(89.26031011 0.0005803756313 0)
(89.30854811 -0.02070782853 0)
(89.392413 -0.04352164191 0)
(89.52154576 -0.07331909933 0)
(89.71034988 -0.1142004456 0)
(89.98059774 -0.1714187946 0)
(90.36754214 -0.2576877921 0)
(90.92752905 -0.3762538463 0)
(91.76502521 -0.6427685118 0)
(93.19141272 -0.8084764962 0)
(100.0063444 0.03194280207 0)
(100.0272928 0.06645996982 0)
(100.0468271 0.08338122307 0)
(100.0553793 0.09478946538 0)
(100.0612543 0.1041378057 0)
(100.0660221 0.1117671158 0)
(100.0694037 0.1180541471 0)
(100.0712747 0.1236060688 0)
(100.0718603 0.1283948967 0)
(100.0712897 0.1326367591 0)
(100.0696147 0.1363640135 0)
(100.0668473 0.1398352346 0)
(100.0630591 0.1429613416 0)
(100.0583332 0.1456209309 0)
(100.0527058 0.1480940457 0)
(100.046136 0.150287065 0)
(100.0385886 0.152191995 0)
(100.0300578 0.1538516316 0)
(100.0205558 0.1552927437 0)
(100.0100904 0.1565436736 0)
(99.9986382 0.157582411 0)
(99.9861851 0.1584175607 0)
(99.97274013 0.159170791 0)
(99.95831538 0.159862396 0)
(99.94291899 0.1604661992 0)
(99.92655882 0.1609611402 0)
(99.90924323 0.161355703 0)
(99.89098068 0.1616597457 0)
(99.87178004 0.1618769313 0)
(99.85165152 0.1619987021 0)
(99.83061364 0.1620250726 0)
(99.80869141 0.1619752831 0)
(99.78590541 0.1618681747 0)
(99.76227458 0.161711601 0)
(99.73781194 0.1615070055 0)
(99.71252291 0.1612579868 0)
(99.68642394 0.1609783957 0)
(99.6595383 0.1606811947 0)
(99.63188197 0.1603649526 0)
(99.60346838 0.1600214133 0)
(99.5743144 0.1596464342 0)
(99.5444392 0.1592409169 0)
(99.51386166 0.1588073643 0)
(99.48259997 0.1583481287 0)
(99.45067259 0.1578644069 0)
(99.41809691 0.1573602117 0)
(99.38489322 0.156832925 0)
(99.3510812 0.1562830421 0)
(99.3166788 0.1557179092 0)
(99.28170137 0.1551363269 0)
(99.2461681 0.1545363627 0)
(99.21010126 0.1539162085 0)
(99.17352583 0.1532746048 0)
(99.13646731 0.1526114078 0)
(99.09894977 0.1519261918 0)
(99.06099647 0.151218444 0)
(99.0226315 0.1504865379 0)
(98.98387906 0.1497297141 0)
(98.94476156 0.1489465169 0)
(98.90530234 0.1481333897 0)
(98.86552923 0.1472860203 0)
(98.82547468 0.1463999347 0)
(98.78517458 0.1454698282 0)
(98.74466812 0.1444891153 0)
(98.70399862 0.1434499494 0)
(98.66321437 0.142343182 0)
(98.62236949 0.1411580171 0)
(98.58152494 0.13988173 0)
(98.54074982 0.1384989142 0)
(98.50012266 0.1369921018 0)
(98.45973381 0.135338113 0)
(98.41968661 0.1335123189 0)
(98.3800923 0.1314890071 0)
(98.34106917 0.1292383115 0)
(98.30278099 0.1267211075 0)
(98.2654368 0.1238878793 0)
(98.22926482 0.1206772925 0)
(98.19452121 0.1170170604 0)
(98.16150756 0.1128219013 0)
(98.13058392 0.1079889111 0)
(98.1021796 0.102394241 0)
(98.07680853 0.09588814816 0)
(98.05508792 0.08828214629 0)
(98.03776366 0.07935868475 0)
(98.02568812 0.0687782988 0)
(98.01991385 0.05625705051 0)
(98.02163065 0.04113566635 0)
(98.03242067 0.02270385031 0)
(98.0545349 1.060347975e-05 0)
(98.09061678 -0.02794555128 0)
(98.14369626 -0.06260586528 0)
(98.21756309 -0.1058274393 0)
(98.31718793 -0.1608509269 0)
(98.44971954 -0.2322644488 0)
(98.62416326 -0.3273416226 0)
(98.85270989 -0.4579178476 0)
(99.14974426 -0.645059311 0)
(99.537693 -0.9220957262 0)
(100.0092267 -1.360839848 0)
(100.5608093 -2.016995133 0)
(100.0024401 0.01815422036 0)
(100.011806 0.04113035788 0)
(100.0250912 0.05658044097 0)
(100.03799 0.06941736768 0)
(100.0495904 0.08054800218 0)
(100.0605653 0.09017824373 0)
(100.07096 0.09846273306 0)
(100.0807546 0.1057405552 0)
(100.0899366 0.1122072876 0)
(100.0987729 0.1181306295 0)
(100.1071461 0.1234971414 0)
(100.1154229 0.1282888125 0)
(100.1238503 0.1326637537 0)
(100.1315743 0.136756071 0)
(100.1389487 0.1405886609 0)
(100.1460938 0.1441706567 0)
(100.1529983 0.1475151943 0)
(100.1596672 0.1506333717 0)
(100.1661174 0.1535304664 0)
(100.17236 0.1562984657 0)
(100.1783055 0.1589488093 0)
(100.1840997 0.1613940169 0)
(100.1896984 0.1636338459 0)
(100.1951043 0.1656877217 0)
(100.2003303 0.1675749218 0)
(100.2053765 0.1693145862 0)
(100.2102309 0.1709214208 0)
(100.2148743 0.1724152088 0)
(100.219284 0.1738315714 0)
(100.2234696 0.1751435965 0)
(100.2274657 0.1762963167 0)
(100.2312864 0.1773035903 0)
(100.2349154 0.1781992244 0)
(100.2383352 0.1789839964 0)
(100.2415405 0.1797238273 0)
(100.2445364 0.1803807833 0)
(100.2473173 0.1808806995 0)
(100.2498613 0.1813059586 0)
(100.252146 0.1816898119 0)
(100.2541675 0.1820237055 0)
(100.2559338 0.1823008721 0)
(100.2574519 0.1825212644 0)
(100.2587243 0.1826882084 0)
(100.2597513 0.1828038798 0)
(100.2605354 0.1828700047 0)
(100.2610685 0.1828878761 0)
(100.2613928 0.1828610498 0)
(100.2614204 0.1827924748 0)
(100.2612376 0.1826812052 0)
(100.260816 0.1825248386 0)
(100.260155 0.1823144179 0)
(100.2592606 0.1820458113 0)
(100.2581426 0.1817259511 0)
(100.2568108 0.1813613491 0)
(100.2552729 0.1809525816 0)
(100.2535358 0.1804996826 0)
(100.251609 0.180010387 0)
(100.2495022 0.1794881053 0)
(100.2472211 0.1789217012 0)
(100.2447739 0.1782969932 0)
(100.2421746 0.1776048785 0)
(100.2394409 0.176838922 0)
(100.2365928 0.1759916455 0)
(100.2336539 0.1750534134 0)
(100.2306517 0.1740125387 0)
(100.2276184 0.1728553685 0)
(100.2245917 0.1715658536 0)
(100.2216146 0.1701252169 0)
(100.2187384 0.1685116233 0)
(100.2160194 0.1667001259 0)
(100.2135275 0.1646664127 0)
(100.211348 0.1623821542 0)
(100.2095794 0.1598315592 0)
(100.2083375 0.1569296055 0)
(100.2077526 0.1534584345 0)
(100.2079766 0.1494611215 0)
(100.2091923 0.1448630658 0)
(100.211615 0.1395505636 0)
(100.2154987 0.1333853154 0)
(100.2211464 0.1262004023 0)
(100.2289189 0.1177934871 0)
(100.2392433 0.1079253987 0)
(100.2526314 0.09633896892 0)
(100.2696883 0.08270996261 0)
(100.2911183 0.06659225559 0)
(100.3177524 0.04735580854 0)
(100.3506059 0.02424418828 0)
(100.391001 -0.003691149448 0)
(100.4404594 -0.03762744092 0)
(100.5008905 -0.07938989712 0)
(100.5747891 -0.1316878948 0)
(100.6651696 -0.1974410737 0)
(100.7750482 -0.2804237184 0)
(100.9087411 -0.3858511955 0)
(101.0692103 -0.521443652 0)
(101.2600072 -0.7013093414 0)
(101.4861364 -0.9450222936 0)
(101.7328014 -1.277581555 0)
(101.9707213 -1.747509479 0)
(102.2159138 -2.385874419 0)
(100.0011177 0.01155493809 0)
(100.0065209 0.03229393777 0)
(100.0160772 0.04901737451 0)
(100.0266031 0.06269576581 0)
(100.0368119 0.07420378173 0)
(100.046943 0.08405015572 0)
(100.0570985 0.09251300797 0)
(100.0671648 0.09988644813 0)
(100.0770501 0.1063793928 0)
(100.0867725 0.1121591589 0)
(100.0963826 0.1173369608 0)
(100.1058206 0.1219395552 0)
(100.1151152 0.1261224082 0)
(100.1243361 0.1300356309 0)
(100.1335449 0.1336741423 0)
(100.1427242 0.1370074809 0)
(100.1518433 0.1400413904 0)
(100.1608983 0.1428037542 0)
(100.169889 0.145320901 0)
(100.1788224 0.1476242269 0)
(100.1877263 0.1497297888 0)
(100.1965931 0.1516310884 0)
(100.2054181 0.1533549767 0)
(100.2141777 0.1549275174 0)
(100.2229159 0.1563728338 0)
(100.2315847 0.1576926598 0)
(100.2402586 0.1589082086 0)
(100.2488406 0.1600035537 0)
(100.2574911 0.1609452535 0)
(100.2663179 0.1617574245 0)
(100.2749596 0.1624984897 0)
(100.2834739 0.1631745466 0)
(100.2918886 0.1637812734 0)
(100.3002059 0.1643224505 0)
(100.3083895 0.1647852128 0)
(100.316541 0.1652157178 0)
(100.3244538 0.165657672 0)
(100.3322684 0.1660591139 0)
(100.3400433 0.1663905619 0)
(100.3477587 0.1666563229 0)
(100.355415 0.1668645903 0)
(100.3630119 0.1670220874 0)
(100.3705458 0.1671340709 0)
(100.3780159 0.1672035444 0)
(100.3854196 0.1672333299 0)
(100.3927546 0.1672251463 0)
(100.4000202 0.1671846385 0)
(100.4072181 0.1671170403 0)
(100.4143416 0.1670197902 0)
(100.4213816 0.1669124267 0)
(100.4283307 0.1667964361 0)
(100.4352173 0.166621064 0)
(100.4420621 0.166380297 0)
(100.4488647 0.1660844378 0)
(100.4556231 0.1657418132 0)
(100.4623421 0.1653355215 0)
(100.4690382 0.164845587 0)
(100.4756937 0.1643268286 0)
(100.4822951 0.1637847189 0)
(100.4888512 0.1631977552 0)
(100.4953838 0.1625470876 0)
(100.5019139 0.1618188419 0)
(100.5084605 0.1609995413 0)
(100.5150439 0.1600746655 0)
(100.5216881 0.159028239 0)
(100.528421 0.1578414515 0)
(100.5352745 0.156492292 0)
(100.5422853 0.1549554045 0)
(100.5494971 0.1531994355 0)
(100.5569567 0.1511998731 0)
(100.5647222 0.1488728902 0)
(100.5728682 0.1461899886 0)
(100.5814839 0.1430977459 0)
(100.5906831 0.1395301071 0)
(100.6005742 0.1354065661 0)
(100.6112686 0.130626582 0)
(100.6229148 0.1250676066 0)
(100.6356972 0.1185834394 0)
(100.6498326 0.1110022797 0)
(100.6655726 0.1021024599 0)
(100.6832336 0.09163799563 0)
(100.7032057 0.07918699382 0)
(100.726013 0.0643623313 0)
(100.7520318 0.04681965006 0)
(100.781837 0.02611616387 0)
(100.8158524 0.001722152754 0)
(100.8550036 -0.02748707925 0)
(100.9003551 -0.06276180258 0)
(100.9529597 -0.105586855 0)
(101.0141504 -0.1577933049 0)
(101.0845592 -0.2213189276 0)
(101.1613432 -0.2997176061 0)
(101.2529681 -0.397358884 0)
(101.3505456 -0.5206319704 0)
(101.4704519 -0.6780907039 0)
(101.6036884 -0.8799446008 0)
(101.7460902 -1.139720186 0)
(101.8906257 -1.473833529 0)
(102.0172778 -1.907263876 0)
(102.0946533 -2.45319584 0)
(100.0006662 0.008892200284 0)
(100.0039715 0.02595349765 0)
(100.0105366 0.04058606588 0)
(100.0186276 0.05292063725 0)
(100.0271963 0.06358750026 0)
(100.0361116 0.07298641554 0)
(100.0453556 0.08128477872 0)
(100.0547898 0.08863587954 0)
(100.0642927 0.09518719655 0)
(100.0738209 0.1010679468 0)
(100.0833732 0.1063737693 0)
(100.0929234 0.1111714754 0)
(100.1024457 0.1155518399 0)
(100.1119565 0.1195944647 0)
(100.1214916 0.1233265496 0)
(100.1310636 0.1267613224 0)
(100.1406635 0.1299215112 0)
(100.1502815 0.1328345307 0)
(100.1599139 0.1355256328 0)
(100.1695577 0.1380192537 0)
(100.1792231 0.1403315925 0)
(100.1889046 0.1424662502 0)
(100.198595 0.1444359225 0)
(100.2082803 0.1462527083 0)
(100.2179673 0.1479292064 0)
(100.2276502 0.149470803 0)
(100.2373349 0.1508867169 0)
(100.2470218 0.1521782549 0)
(100.2566839 0.1533285881 0)
(100.2663127 0.1543721293 0)
(100.2759288 0.1553651243 0)
(100.2855566 0.1563018743 0)
(100.2951858 0.157162414 0)
(100.3047991 0.1579434424 0)
(100.3143766 0.15864992 0)
(100.3239289 0.1592969983 0)
(100.3334639 0.1598927327 0)
(100.3429879 0.1604144512 0)
(100.3524818 0.1608562009 0)
(100.3619319 0.1612316437 0)
(100.3713449 0.1615533495 0)
(100.3807225 0.1618277681 0)
(100.3900697 0.1620570998 0)
(100.3993803 0.1622431275 0)
(100.4086638 0.1623880545 0)
(100.4179082 0.1624934579 0)
(100.4271336 0.1625619025 0)
(100.4363174 0.1625949545 0)
(100.4455071 0.1625933056 0)
(100.4546398 0.1625257734 0)
(100.4639467 0.1623885587 0)
(100.4732058 0.1622218962 0)
(100.4823596 0.1620204255 0)
(100.4915266 0.1617853119 0)
(100.500563 0.161490048 0)
(100.5096982 0.1611728334 0)
(100.518531 0.1608567664 0)
(100.5274002 0.1604700289 0)
(100.5363043 0.159999342 0)
(100.5452338 0.1594392989 0)
(100.5542064 0.1587840049 0)
(100.5632381 0.1580256628 0)
(100.5723398 0.1571529402 0)
(100.5815236 0.1561494858 0)
(100.5908074 0.1549951043 0)
(100.6002133 0.1536686493 0)
(100.6097674 0.152143911 0)
(100.619501 0.1503899524 0)
(100.6294509 0.1483705194 0)
(100.6396645 0.1460443443 0)
(100.6501937 0.1433593105 0)
(100.6610953 0.1402555603 0)
(100.6724408 0.1366628035 0)
(100.6843165 0.1324934424 0)
(100.696816 0.1276337502 0)
(100.7100452 0.1219623384 0)
(100.7241361 0.115340643 0)
(100.7392487 0.1076013626 0)
(100.7555581 0.09853871845 0)
(100.7732939 0.08791461853 0)
(100.792563 0.07538712264 0)
(100.8140375 0.06078197863 0)
(100.8364701 0.04366354592 0)
(100.8619775 0.02344466117 0)
(100.8892239 -0.0006395693049 0)
(100.921316 -0.0295089748 0)
(100.957331 -0.06395582574 0)
(100.9977862 -0.1051796187 0)
(101.0433597 -0.1546993739 0)
(101.0946577 -0.214355297 0)
(101.152568 -0.2862082507 0)
(101.217768 -0.3736471823 0)
(101.2907134 -0.480919729 0)
(101.3706187 -0.6138436966 0)
(101.4554749 -0.7799017412 0)
(101.5417009 -0.9863277812 0)
(101.6235665 -1.24241195 0)
(101.6908451 -1.559295616 0)
(101.7254814 -1.949543044 0)
(101.7000517 -2.418812166 0)
(100.0004347 0.007233986676 0)
(100.0026492 0.02139799137 0)
(100.007445 0.03428092185 0)
(100.0138522 0.04565574795 0)
(100.0210525 0.05573177205 0)
(100.0287849 0.06473012052 0)
(100.0369775 0.07276655277 0)
(100.0455173 0.07994162785 0)
(100.0542904 0.08636785768 0)
(100.0632313 0.09215021224 0)
(100.0723094 0.09737572145 0)
(100.081498 0.102112576 0)
(100.0907696 0.1064266042 0)
(100.1001161 0.1103816295 0)
(100.1095465 0.114021047 0)
(100.1190644 0.1173712297 0)
(100.1286623 0.1204548796 0)
(100.1383284 0.1232943206 0)
(100.1480566 0.1259112813 0)
(100.1578411 0.1283248181 0)
(100.1676792 0.130550181 0)
(100.177567 0.1325975545 0)
(100.1874979 0.1344789458 0)
(100.1974647 0.1362072107 0)
(100.2074632 0.1377947716 0)
(100.2174904 0.1392509048 0)
(100.2275425 0.1405834522 0)
(100.2376145 0.141797146 0)
(100.247699 0.1428959775 0)
(100.2577777 0.1438993141 0)
(100.2678514 0.1448291006 0)
(100.2779342 0.1456871938 0)
(100.2880281 0.146470062 0)
(100.2981298 0.1471823396 0)
(100.3082343 0.1478304344 0)
(100.3183386 0.1484229081 0)
(100.3284483 0.1489638559 0)
(100.3385646 0.1494457637 0)
(100.3486829 0.1498669324 0)
(100.358789 0.1502321861 0)
(100.3688804 0.1505463003 0)
(100.378955 0.150811991 0)
(100.3890147 0.1510316995 0)
(100.399056 0.1512073 0)
(100.4090831 0.1513409894 0)
(100.4190907 0.1514337932 0)
(100.4290877 0.1514872536 0)
(100.4390658 0.1515001331 0)
(100.4490408 0.151471485 0)
(100.4589947 0.1513870129 0)
(100.468923 0.1512437561 0)
(100.4788313 0.1510777118 0)
(100.4887416 0.1508890964 0)
(100.4986624 0.1506629432 0)
(100.5085734 0.1503861977 0)
(100.5184879 0.150063592 0)
(100.5284154 0.149704824 0)
(100.5383665 0.1492629896 0)
(100.5483273 0.1487246106 0)
(100.5582964 0.1480922316 0)
(100.5682879 0.1473619811 0)
(100.5783179 0.1465225629 0)
(100.5884008 0.1455588213 0)
(100.5985515 0.1444521874 0)
(100.6087875 0.1431801267 0)
(100.6191285 0.1417162831 0)
(100.6295976 0.1400298874 0)
(100.640222 0.13808503 0)
(100.6510331 0.1358394135 0)
(100.6620681 0.1332437937 0)
(100.6733698 0.1302370329 0)
(100.6849859 0.1267491674 0)
(100.6969735 0.1226986551 0)
(100.7093993 0.1179876289 0)
(100.7223391 0.1124991304 0)
(100.7358787 0.1060995257 0)
(100.7501171 0.09863153655 0)
(100.76517 0.08990662737 0)
(100.7811658 0.07969803151 0)
(100.798258 0.06774510041 0)
(100.8165925 0.05372080036 0)
(100.8364254 0.03733496279 0)
(100.8580155 0.01814305565 0)
(100.8816866 -0.004503576709 0)
(100.9075961 -0.03137814167 0)
(100.9359389 -0.06343753474 0)
(100.9669673 -0.1014853743 0)
(101.0010858 -0.1466549518 0)
(101.0386453 -0.2004593455 0)
(101.0798585 -0.2647464258 0)
(101.124863 -0.3417558071 0)
(101.1735948 -0.4345310196 0)
(101.2254701 -0.5468158377 0)
(101.2790474 -0.6832114686 0)
(101.3315566 -0.8489913818 0)
(101.3784885 -1.049684639 0)
(101.4130688 -1.291519808 0)
(101.4252655 -1.580704939 0)
(101.4004222 -1.921999316 0)
(101.3187284 -2.315056514 0)
(100.0003204 0.006077559622 0)
(100.0019561 0.0180936289 0)
(100.0056448 0.02938939124 0)
(100.0108225 0.03965884587 0)
(100.016903 0.04891194113 0)
(100.0236303 0.05726918973 0)
(100.0309064 0.06481741183 0)
(100.0386274 0.07162505388 0)
(100.0466863 0.07776916883 0)
(100.0550087 0.08332894892 0)
(100.0635493 0.08837496866 0)
(100.0722756 0.09296740278 0)
(100.0811585 0.09715989254 0)
(100.0901825 0.1010038376 0)
(100.0993401 0.1045389438 0)
(100.1086231 0.1077925796 0)
(100.1180225 0.1107883135 0)
(100.1275283 0.1135483228 0)
(100.1371314 0.1160932204 0)
(100.1468244 0.1184415167 0)
(100.1566013 0.1206090174 0)
(100.166456 0.1226083893 0)
(100.1763812 0.1244514124 0)
(100.1863695 0.1261496741 0)
(100.1964146 0.1277139971 0)
(100.2065111 0.129153255 0)
(100.2166533 0.1304749861 0)
(100.2268348 0.1316857385 0)
(100.2370479 0.1327919451 0)
(100.2472838 0.1338042352 0)
(100.2575382 0.1347356367 0)
(100.2678135 0.1355940822 0)
(100.2781113 0.1363830554 0)
(100.2884294 0.1371061729 0)
(100.2987639 0.1377676998 0)
(100.3091128 0.1383721523 0)
(100.3194762 0.1389227108 0)
(100.3298538 0.1394180573 0)
(100.340242 0.1398572304 0)
(100.3506348 0.1402425638 0)
(100.3610283 0.1405774473 0)
(100.3714195 0.1408647392 0)
(100.381808 0.1411069649 0)
(100.3921915 0.1413059597 0)
(100.40257 0.1414633989 0)
(100.4129416 0.1415800155 0)
(100.4233076 0.1416563115 0)
(100.4336665 0.1416911546 0)
(100.4440193 0.1416827895 0)
(100.4543638 0.1416265764 0)
(100.4646931 0.1415245871 0)
(100.4750044 0.1413882539 0)
(100.4853088 0.1412155657 0)
(100.4956145 0.1409996552 0)
(100.5059228 0.1407332754 0)
(100.5162362 0.1404171215 0)
(100.526565 0.1400467295 0)
(100.5369179 0.1395987971 0)
(100.5472926 0.1390595379 0)
(100.5576864 0.1384228595 0)
(100.5681039 0.1376790531 0)
(100.5785542 0.1368133596 0)
(100.5890471 0.1358081232 0)
(100.599594 0.1346428635 0)
(100.6102084 0.1332933151 0)
(100.6209056 0.1317309328 0)
(100.6317039 0.129922179 0)
(100.6426244 0.1278276277 0)
(100.6536916 0.1254008118 0)
(100.6649339 0.1225871171 0)
(100.6763842 0.1193215546 0)
(100.68808 0.1155284124 0)
(100.7000645 0.1111189784 0)
(100.7123877 0.1059882917 0)
(100.7251062 0.1000121038 0)
(100.7382835 0.09304481934 0)
(100.751992 0.08491563433 0)
(100.7663143 0.07542340122 0)
(100.7813434 0.06433043519 0)
(100.7971857 0.05136040818 0)
(100.8139572 0.03618206104 0)
(100.8318003 0.01842944644 0)
(100.8508891 -0.002388669436 0)
(100.871397 -0.02689370749 0)
(100.8934577 -0.05582612509 0)
(100.9171567 -0.09002554232 0)
(100.9425644 -0.1303989854 0)
(100.9697668 -0.1780948795 0)
(100.998793 -0.2345542903 0)
(101.0295246 -0.3015086786 0)
(101.0616455 -0.3810190156 0)
(101.094535 -0.4756127661 0)
(101.1270375 -0.58830899 0)
(101.1571827 -0.7225866081 0)
(101.1818429 -0.88229617 0)
(101.1964005 -1.071347251 0)
(101.1944198 -1.293437841 0)
(101.167191 -1.551414915 0)
(101.1032569 -1.8461484 0)
(100.988538 -2.174530489 0)
(100.0002545 0.005206029806 0)
(100.0015464 0.01552786909 0)
(100.0045106 0.02540772851 0)
(100.0088066 0.03458710776 0)
(100.0140244 0.04300104892 0)
(100.0199464 0.0506952791 0)
(100.0264671 0.05771857638 0)
(100.0334889 0.06411137377 0)
(100.0409143 0.06992215042 0)
(100.0486691 0.07520753098 0)
(100.0567014 0.08002206545 0)
(100.0649754 0.08441666101 0)
(100.0734577 0.0884350048 0)
(100.0821253 0.09211841368 0)
(100.0909626 0.09550250017 0)
(100.0999574 0.09861586952 0)
(100.109098 0.1014822616 0)
(100.1183728 0.1041229547 0)
(100.127771 0.1065573823 0)
(100.1372834 0.1088028672 0)
(100.1469018 0.1108744792 0)
(100.1566185 0.1127850931 0)
(100.1664254 0.114546278 0)
(100.1763149 0.1161689424 0)
(100.1862798 0.1176632191 0)
(100.1963134 0.119038058 0)
(100.2064093 0.1203014172 0)
(100.216561 0.1214606619 0)
(100.2267612 0.1225230388 0)
(100.2370032 0.1234970676 0)
(100.2472824 0.1243924303 0)
(100.2575969 0.1252166277 0)
(100.2679454 0.1259739 0)
(100.2783251 0.1266675551 0)
(100.2887326 0.1273013319 0)
(100.2991652 0.1278790232 0)
(100.3096213 0.1284036045 0)
(100.3200991 0.1288760982 0)
(100.3305954 0.1292970346 0)
(100.3411057 0.129668218 0)
(100.3516266 0.1299923571 0)
(100.3621552 0.1302718341 0)
(100.3726897 0.130508476 0)
(100.383228 0.1307036374 0)
(100.3937687 0.1308583846 0)
(100.4043103 0.1309732273 0)
(100.4148519 0.1310482131 0)
(100.4253924 0.1310826021 0)
(100.4359303 0.1310751158 0)
(100.4464642 0.1310239118 0)
(100.4569907 0.1309283258 0)
(100.4675078 0.1307907597 0)
(100.4780192 0.1306108811 0)
(100.4885305 0.1303851181 0)
(100.499044 0.1301083195 0)
(100.5095618 0.1297755972 0)
(100.5200889 0.1293806356 0)
(100.530631 0.1289098124 0)
(100.541189 0.1283490634 0)
(100.5517623 0.1276870456 0)
(100.5623535 0.1269114977 0)
(100.572968 0.1260069306 0)
(100.5836127 0.1249546477 0)
(100.5942951 0.1237326168 0)
(100.6050242 0.1223148152 0)
(100.6158106 0.1206705787 0)
(100.6266666 0.1187638658 0)
(100.6376068 0.116552386 0)
(100.6486479 0.1139865097 0)
(100.6598094 0.1110080223 0)
(100.6711136 0.107548441 0)
(100.6825858 0.103527499 0)
(100.6942549 0.09885116789 0)
(100.7061536 0.09340899443 0)
(100.7183185 0.08707113059 0)
(100.7307905 0.0796854906 0)
(100.7436147 0.07107418179 0)
(100.7568417 0.06102866832 0)
(100.7705268 0.04930378158 0)
(100.7847304 0.03561236294 0)
(100.7995166 0.01961472644 0)
(100.814955 0.0009143015418 0)
(100.8311221 -0.02096930254 0)
(100.8480836 -0.04662249222 0)
(100.8658689 -0.0767378246 0)
(100.8844548 -0.1121220092 0)
(100.903766 -0.1536943271 0)
(100.9236786 -0.2025405396 0)
(100.9439757 -0.2599606288 0)
(100.9642701 -0.3274881568 0)
(100.9839284 -0.4069086394 0)
(101.0019705 -0.5003002652 0)
(101.016905 -0.6100324553 0)
(101.0265269 -0.7386911422 0)
(101.0276904 -0.8889388663 0)
(101.01609 -1.063235895 0)
(100.9860733 -1.263483033 0)
(100.9304773 -1.490493359 0)
(100.8405929 -1.743172038 0)
(100.7065563 -2.017348096 0)
(100.0002121 0.004502266972 0)
(100.0012826 0.01343569562 0)
(100.0037567 0.02208066994 0)
(100.0074156 0.03023937109 0)
(100.0119682 0.03782248673 0)
(100.017241 0.04483010262 0)
(100.0231357 0.05128149413 0)
(100.0295668 0.05720119172 0)
(100.0364458 0.06261740393 0)
(100.0437015 0.06756916335 0)
(100.05128 0.0720972761 0)
(100.0591398 0.07624145054 0)
(100.0672478 0.08003917751 0)
(100.0755773 0.08352482104 0)
(100.0841075 0.08672879451 0)
(100.0928217 0.08967698359 0)
(100.1017049 0.09239162893 0)
(100.1107438 0.09489261067 0)
(100.1199259 0.09719797251 0)
(100.1292406 0.0993239014 0)
(100.1386779 0.1012847337 0)
(100.1482287 0.1030931042 0)
(100.1578845 0.1047603621 0)
(100.1676368 0.1062969605 0)
(100.1774779 0.1077125265 0)
(100.1874003 0.1090157675 0)
(100.1973973 0.110214566 0)
(100.2074619 0.1113162558 0)
(100.2175874 0.1123279366 0)
(100.2277676 0.1132569492 0)
(100.2379974 0.114110781 0)
(100.2482733 0.11489581 0)
(100.2585925 0.1156166762 0)
(100.2689517 0.1162771492 0)
(100.2793475 0.1168808647 0)
(100.2897768 0.1174311892 0)
(100.3002368 0.1179308218 0)
(100.3107249 0.1183814765 0)
(100.3212379 0.1187843963 0)
(100.3317719 0.1191411907 0)
(100.3423234 0.1194538662 0)
(100.3528897 0.1197242795 0)
(100.3634682 0.1199539243 0)
(100.3740567 0.1201439428 0)
(100.3846532 0.1202951466 0)
(100.3952559 0.1204079203 0)
(100.4058631 0.1204822123 0)
(100.4164732 0.1205174602 0)
(100.4270845 0.1205126337 0)
(100.4376954 0.1204664608 0)
(100.4483033 0.1203778907 0)
(100.4589072 0.1202466447 0)
(100.4695078 0.1200713302 0)
(100.4801077 0.1198483333 0)
(100.4907079 0.1195724266 0)
(100.5013096 0.119237396 0)
(100.5119151 0.1188357591 0)
(100.5225268 0.1183565511 0)
(100.5331455 0.1177868406 0)
(100.543771 0.117113914 0)
(100.5544042 0.1163241566 0)
(100.5650476 0.1154012005 0)
(100.5757048 0.11432534 0)
(100.5863795 0.1130733214 0)
(100.5970765 0.1116178942 0)
(100.6078014 0.1099270392 0)
(100.6185608 0.1079631769 0)
(100.6293624 0.1056823498 0)
(100.6402152 0.1030331372 0)
(100.6511291 0.09995532084 0)
(100.6621157 0.09637831419 0)
(100.6731877 0.09221954473 0)
(100.684359 0.08738248817 0)
(100.695645 0.0817541935 0)
(100.707062 0.07520244808 0)
(100.7186274 0.06757272394 0)
(100.7303588 0.05868456056 0)
(100.7422742 0.0483270706 0)
(100.7543906 0.03625351878 0)
(100.7667229 0.02217546752 0)
(100.7792819 0.005754690421 0)
(100.7920715 -0.01340469244 0)
(100.8050846 -0.03577039698 0)
(100.8182903 -0.06189830786 0)
(100.8316166 -0.0924390887 0)
(100.8449339 -0.1281445027 0)
(100.8580438 -0.1698727396 0)
(100.8706636 -0.2186119617 0)
(100.8823894 -0.2755098 0)
(100.8926345 -0.341885881 0)
(100.9005597 -0.4192312843 0)
(100.9049871 -0.5092035403 0)
(100.9042837 -0.613592861 0)
(100.8962222 -0.7342331283 0)
(100.8778399 -0.872851159 0)
(100.8453138 -1.03083079 0)
(100.7938838 -1.208896235 0)
(100.7178517 -1.406689012 0)
(100.610729 -1.622205764 0)
(100.4656734 -1.851130163 0)
(100.0001828 0.003906777355 0)
(100.001103 0.01167168575 0)
(100.0032344 0.01922932298 0)
(100.0064229 0.02643530105 0)
(100.0104601 0.03321246011 0)
(100.0152128 0.03953451834 0)
(100.020595 0.0453982953 0)
(100.0265284 0.05081291838 0)
(100.0329373 0.05579749979 0)
(100.0397563 0.06037816943 0)
(100.0469325 0.06458432725 0)
(100.0544235 0.06844618758 0)
(100.0621941 0.07199318388 0)
(100.0702152 0.0752531804 0)
(100.0784629 0.07825181098 0)
(100.0869174 0.08101197044 0)
(100.0955614 0.08355396751 0)
(100.1043794 0.08589606355 0)
(100.1133576 0.08805482482 0)
(100.1224835 0.09004521044 0)
(100.1317459 0.09188062747 0)
(100.1411344 0.09357306374 0)
(100.1506395 0.09513332582 0)
(100.160252 0.09657128442 0)
(100.1699635 0.09789599682 0)
(100.179766 0.09911573665 0)
(100.1896521 0.1002380761 0)
(100.1996148 0.1012700608 0)
(100.2096473 0.1022183984 0)
(100.2197434 0.1030896305 0)
(100.2298978 0.1038900785 0)
(100.2401061 0.104625379 0)
(100.2503644 0.105300142 0)
(100.2606691 0.105918189 0)
(100.2710164 0.1064829196 0)
(100.2814029 0.1069973655 0)
(100.2918252 0.1074640628 0)
(100.3022803 0.1078849645 0)
(100.3127647 0.1082616404 0)
(100.323275 0.1085956502 0)
(100.3338077 0.1088886457 0)
(100.3443597 0.109142164 0)
(100.3549284 0.1093574607 0)
(100.3655112 0.1095354716 0)
(100.3761057 0.1096768069 0)
(100.3867098 0.109781708 0)
(100.3973213 0.1098500177 0)
(100.4079383 0.1098811604 0)
(100.4185587 0.1098741475 0)
(100.4291805 0.1098277738 0)
(100.4398019 0.1097406523 0)
(100.4504213 0.1096112116 0)
(100.4610381 0.1094370556 0)
(100.4716526 0.1092143663 0)
(100.4822648 0.1089379975 0)
(100.4928748 0.1086015339 0)
(100.5034827 0.1081971321 0)
(100.5140888 0.1077147607 0)
(100.5246925 0.1071424407 0)
(100.5352925 0.1064670889 0)
(100.5458878 0.1056741948 0)
(100.5564782 0.1047467224 0)
(100.5670636 0.1036644959 0)
(100.5776443 0.1024037488 0)
(100.5882207 0.1009367891 0)
(100.5987931 0.09923112406 0)
(100.6093624 0.09724851306 0)
(100.6199295 0.09494436595 0)
(100.6304951 0.0922667425 0)
(100.6410599 0.08915489233 0)
(100.6516244 0.08553766233 0)
(100.6621885 0.08133218235 0)
(100.6727514 0.07644179576 0)
(100.6833109 0.07075373662 0)
(100.6938633 0.06413643494 0)
(100.7044021 0.05643647983 0)
(100.7149179 0.04747513615 0)
(100.7253965 0.03704430944 0)
(100.7358177 0.02490177925 0)
(100.7461529 0.01076574974 0)
(100.7563616 -0.005691790639 0)
(100.7663873 -0.02485243324 0)
(100.7761507 -0.0471607627 0)
(100.7855392 -0.0731346842 0)
(100.7943928 -0.1033722347 0)
(100.8024879 -0.1385568412 0)
(100.8095212 -0.1794629568 0)
(100.8150889 -0.2269667128 0)
(100.8186537 -0.2820573752 0)
(100.8194975 -0.3458382732 0)
(100.816664 -0.4195142654 0)
(100.808891 -0.5043659788 0)
(100.7945302 -0.6016996967 0)
(100.7714595 -0.7127569804 0)
(100.7370024 -0.8385757122 0)
(100.6878735 -0.9797938417 0)
(100.6201747 -1.136394656 0)
(100.5294726 -1.307393466 0)
(100.4110003 -1.49047353 0)
(100.2600505 -1.681616612 0)
(100.0001614 0.003389431755 0)
(100.0009734 0.0101320742 0)
(100.0028587 0.01672401371 0)
(100.0056989 0.0230553214 0)
(100.0093344 0.02905779641 0)