# Residuals       
# Time            	Ux                	Uy                	p                 	k                 	omega             
0                 	N/A	N/A	N/A	N/A
1                 	1.0000000000e+00	0.0000000000e+00	1.0000000000e+00	1.0000000000e+00	2.1485678693e-02
2                 	4.6896940105e-01	3.8858730769e-01	1.6029022526e-02	2.5697179460e-01	3.4935452722e-03
3                 	3.3252213412e-01	2.6636956797e-01	1.3784620644e-02	1.2390022296e-01	3.2816546405e-03
4                 	2.4111158580e-01	1.8581116697e-01	1.5033017939e-02	7.4214362806e-02	3.1304595318e-03
5                 	1.6802859358e-01	1.2771487685e-01	2.1080348242e-02	4.9033162332e-02	3.0004256453e-03
6                 	1.0343969955e-01	8.6329555160e-02	3.2996611523e-02	3.7225142524e-02	3.0244826499e-03
7                 	4.5396381208e-02	6.1048221064e-02	1.0849095770e-01	2.9966923674e-02	2.8811900381e-03
8                 	2.9558826968e-02	6.1127801119e-02	5.6119818285e-02	2.8289518141e-02	3.0216436607e-03
9                 	8.1686452189e-02	6.9943966751e-02	2.8834658998e-02	2.5461101804e-02	2.6584909138e-03
10                	1.2251122356e-01	7.5487967713e-02	2.3362255405e-02	2.6577214858e-02	2.7618726877e-03
11                	1.4147052503e-01	7.2885227218e-02	2.6187122927e-02	2.5677467816e-02	2.4796826465e-03
12                	1.2969859169e-01	6.4636984483e-02	3.2384096851e-02	2.4994081942e-02	2.3584648825e-03
13                	8.9244186467e-02	5.2339291854e-02	4.5807650790e-02	2.4649329681e-02	2.2877693230e-03
14                	4.0399138664e-02	5.2771081359e-02	8.0258732531e-02	2.3780358890e-02	2.3823030384e-03
15                	3.1913209881e-02	5.7150356733e-02	1.7637195209e-01	2.4581649594e-02	2.3569956124e-03
16                	5.3686595173e-02	6.1107275690e-02	8.1549966770e-02	2.4137403107e-02	2.4195042130e-03
17                	5.9899639170e-02	6.0999059672e-02	6.5463441665e-02	2.2849775522e-02	2.3982375314e-03
18                	5.4324309047e-02	5.6364483927e-02	6.7516103982e-02	2.1659620215e-02	2.3236838739e-03
19                	4.2187115309e-02	4.8736175191e-02	8.6770691531e-02	2.0201712207e-02	2.2253996876e-03
20                	2.6866688975e-02	4.2829755275e-02	1.5009461169e-01	1.8884942224e-02	2.1086026061e-03
21                	1.2444382435e-02	3.9716613695e-02	8.6360809046e-02	1.7794906781e-02	1.9800901535e-03
22                	1.9995507125e-02	3.9150724423e-02	5.9275117888e-02	1.6642343319e-02	1.8426596386e-03
23                	2.7966637955e-02	3.9220156290e-02	4.9122079553e-02	1.5466367830e-02	1.7132714308e-03
24                	3.1791098736e-02	3.8984935706e-02	4.5957007982e-02	1.4346507242e-02	1.5946448178e-03
25                	3.0550619402e-02	3.8620391538e-02	4.7098005103e-02	1.3311243855e-02	1.4952424492e-03
26                	2.5056339221e-02	3.8052394179e-02	5.2558253416e-02	1.2382831061e-02	1.4062538435e-03
27                	1.8199168853e-02	3.7761177266e-02	6.2277113482e-02	1.1589228079e-02	1.3282148429e-03
28                	1.2362228488e-02	3.7380524504e-02	7.6247286390e-02	1.0864304939e-02	1.2608056894e-03
29                	1.1347740009e-02	3.6660629997e-02	9.1936703523e-02	1.0192177974e-02	1.1920996450e-03
30                	1.3837793040e-02	3.5590632444e-02	1.0493121819e-01	9.5462276447e-03	1.1206904202e-03
31                	1.4424976704e-02	3.4125406773e-02	1.0648484104e-01	8.9199542212e-03	1.0541780027e-03
32                	1.3301684520e-02	3.3130535492e-02	9.9217563743e-02	8.2852949809e-03	9.8487055830e-04
33                	1.0794160570e-02	3.2160704027e-02	8.6358573235e-02	7.6559524079e-03	9.1940556359e-04
34                	8.3433499450e-03	3.2218873614e-02	7.4349944733e-02	7.0761961735e-03	8.5822244607e-04
35                	8.8540609709e-03	3.2612986721e-02	6.5381872214e-02	6.5531550801e-03	8.0775246580e-04
36                	1.0131158530e-02	3.2949904186e-02	5.9633674699e-02	6.0888396713e-03	7.6395995951e-04
37                	1.0802729123e-02	3.2747676768e-02	5.6682187062e-02	5.6999315466e-03	7.2235333216e-04
38                	1.0801471036e-02	3.1840920524e-02	5.5549238155e-02	5.3497198815e-03	6.8098236774e-04
39                	1.0284630168e-02	3.0778909353e-02	5.5653147921e-02	5.0792363764e-03	6.4516241379e-04
40                	9.2939520457e-03	2.9693470666e-02	5.7175007396e-02	4.8739720937e-03	6.1516152859e-04
41                	8.2403894585e-03	2.8687701660e-02	5.9370559058e-02	4.7132022390e-03	5.8885647881e-04
42                	7.3294801355e-03	2.8155914494e-02	6.1401885771e-02	4.5714433268e-03	5.6511537974e-04
43                	6.6693503771e-03	2.8230427452e-02	6.2722449105e-02	4.4443044447e-03	5.4507524154e-04
44                	6.2902773305e-03	2.8236973301e-02	6.2867642848e-02	4.3004111240e-03	5.2350314338e-04
45                	6.1299042202e-03	2.8238656958e-02	6.2172673377e-02	4.1453363801e-03	5.0581151072e-04
46                	6.0543963101e-03	2.8313071565e-02	6.0630527457e-02	3.9877212399e-03	4.8955340101e-04
47                	6.0471964891e-03	2.8079513820e-02	5.8573384155e-02	3.8283877119e-03	4.7330625207e-04
48                	6.1103700464e-03	2.7718903916e-02	5.6191095409e-02	3.6740578404e-03	4.5798260057e-04
49                	6.1979331460e-03	2.7188458457e-02	5.4168381821e-02	3.5269193594e-03	4.4529489391e-04
50                	6.2484189157e-03	2.6752335861e-02	5.2568591897e-02	3.4003444222e-03	4.3295249448e-04
51                	6.2309528140e-03	2.6326247642e-02	5.1260986019e-02	3.2891316219e-03	4.2083284616e-04
52                	6.1452673556e-03	2.5729350306e-02	5.0293741138e-02	3.1905958924e-03	4.0797374278e-04
53                	6.0412217703e-03	2.5274525499e-02	4.9578649900e-02	3.1083091894e-03	3.9540740794e-04
54                	5.8293706809e-03	2.4665854346e-02	4.9300938711e-02	3.0362599476e-03	3.8313782477e-04
55                	5.5885387643e-03	2.4157772458e-02	4.9285070731e-02	2.9672811328e-03	3.7051910241e-04
56                	5.3386745421e-03	2.3999803069e-02	4.9467008310e-02	2.9043698192e-03	3.6027851863e-04
57                	5.1231034947e-03	2.3839865575e-02	4.9639678500e-02	2.8483895812e-03	3.5052281453e-04
58                	4.9364849367e-03	2.3577858008e-02	4.9690868449e-02	2.7924645914e-03	3.4123043756e-04
59                	4.8179003972e-03	2.3435667852e-02	4.9196646745e-02	2.7311321198e-03	3.3252095310e-04
60                	4.7125031936e-03	2.3219427037e-02	4.8683266866e-02	2.6699021152e-03	3.2421120832e-04
61                	4.6082854416e-03	2.2930127509e-02	4.8185218505e-02	2.6042479155e-03	3.1544232651e-04
62                	4.5124887908e-03	2.2570111350e-02	4.7413118576e-02	2.5437177184e-03	3.0824964643e-04
63                	4.4688642199e-03	2.2276518456e-02	4.6525949706e-02	2.4892049746e-03	3.0228647452e-04
64                	4.4176997571e-03	2.2100252567e-02	4.5814196267e-02	2.4303136496e-03	2.9465929325e-04
65                	4.3501179742e-03	2.1710877710e-02	4.5028044175e-02	2.3718285332e-03	2.8712019594e-04
66                	4.2715453493e-03	2.1257012978e-02	4.4070441577e-02	2.3157342550e-03	2.8043242459e-04
67                	4.1893236002e-03	2.0963376901e-02	4.3427638287e-02	2.2643130551e-03	2.7366808055e-04
68                	4.1029765431e-03	2.0700544861e-02	4.2870290588e-02	2.2158124569e-03	2.6723125384e-04
69                	4.0191086606e-03	2.0594080800e-02	4.2303460397e-02	2.1664063986e-03	2.6075312285e-04
70                	3.9351975188e-03	2.0346812893e-02	4.1824788532e-02	2.1133938811e-03	2.5392020544e-04
71                	3.8521808852e-03	2.0176950824e-02	4.1358944385e-02	2.0660791621e-03	2.4797782157e-04
72                	3.7492778138e-03	2.0037964907e-02	4.0999029113e-02	2.0217599889e-03	2.4250662804e-04
73                	3.6842642222e-03	1.9826775126e-02	4.0609306033e-02	1.9816322101e-03	2.3674592454e-04
74                	3.6269219024e-03	1.9687687143e-02	4.0336507847e-02	1.9407573172e-03	2.3187067763e-04
75                	3.5494987303e-03	1.9497054285e-02	4.0137433763e-02	1.8972946644e-03	2.2646250158e-04
76                	3.4523444818e-03	1.9077386161e-02	3.9904520706e-02	1.8568640411e-03	2.2148916544e-04
77                	3.3314044461e-03	1.8740840319e-02	3.9765619345e-02	1.8191856368e-03	2.1688599473e-04
78                	3.2505313342e-03	1.8555505220e-02	3.9448476964e-02	1.7816447421e-03	2.1203652145e-04
79                	3.1840281623e-03	1.8291629746e-02	3.9087161644e-02	1.7433237671e-03	2.0696919996e-04
80                	3.1206422380e-03	1.8082406569e-02	3.8712507908e-02	1.7073402990e-03	2.0273283147e-04
81                	3.0529795624e-03	1.7977004263e-02	3.8253111845e-02	1.6733102203e-03	1.9913445390e-04
82                	2.9868874496e-03	1.7628067882e-02	3.7781716859e-02	1.6372005514e-03	1.9369534139e-04
83                	2.9348159595e-03	1.7335134997e-02	3.7334614221e-02	1.6081267383e-03	1.9004459024e-04
84                	2.8800978108e-03	1.7149158474e-02	3.6898139733e-02	1.5782042682e-03	1.8599746735e-04
85                	2.8235418530e-03	1.7078545150e-02	3.6452579395e-02	1.5459510626e-03	1.8147773950e-04
86                	2.7636613904e-03	1.6908010446e-02	3.6046224728e-02	1.5143920154e-03	1.7722101890e-04
87                	2.7033411381e-03	1.6654334626e-02	3.5590035619e-02	1.4866432420e-03	1.7349324550e-04
88                	2.6421950227e-03	1.6496569513e-02	3.5149443055e-02	1.4627425343e-03	1.6972258634e-04
89                	2.5865650112e-03	1.6371337571e-02	3.4752243479e-02	1.4376366814e-03	1.6575460176e-04
90                	2.5338942619e-03	1.6115435146e-02	3.4322679149e-02	1.4105171245e-03	1.6148851063e-04
91                	2.4805873993e-03	1.5729213773e-02	3.3925983819e-02	1.3818052700e-03	1.5739712495e-04
92                	2.4255750102e-03	1.5523590217e-02	3.3526308725e-02	1.3502501718e-03	1.5323154116e-04
93                	2.3707388635e-03	1.5395741018e-02	3.3178528895e-02	1.3225154892e-03	1.4974194250e-04
94                	2.3148458073e-03	1.5247723790e-02	3.2818484098e-02	1.2917762130e-03	1.4567056936e-04
95                	2.2625972444e-03	1.5090818997e-02	3.2454800595e-02	1.2607910531e-03	1.4195828960e-04
96                	2.2120421456e-03	1.4919773747e-02	3.2090513769e-02	1.2310707274e-03	1.3819039787e-04
97                	2.1639043836e-03	1.4767365987e-02	3.1758808252e-02	1.2022630896e-03	1.3443884984e-04
98                	2.1152026026e-03	1.4672770577e-02	3.1479178814e-02	1.1710850092e-03	1.3057310948e-04
99                	2.0731873722e-03	1.4558671638e-02	3.1171808516e-02	1.1380427311e-03	1.2627721457e-04
100               	2.0323025421e-03	1.4410922075e-02	3.0877810238e-02	1.1041979731e-03	1.2226713023e-04
101               	1.9881574044e-03	1.4229335663e-02	3.0585272920e-02	1.0653481346e-03	1.1730649334e-04
102               	1.9374867580e-03	1.3892078963e-02	3.0349617714e-02	1.0297651651e-03	1.1347838787e-04
103               	1.8804061075e-03	1.3626850880e-02	3.0191289059e-02	9.9299345472e-04	1.0919471064e-04
104               	1.8234856641e-03	1.3482281339e-02	2.9975768940e-02	9.5537776611e-04	1.0521730321e-04
105               	1.7664957087e-03	1.3268230952e-02	2.9745879344e-02	9.1913204401e-04	1.0122060763e-04
106               	1.7165675779e-03	1.3073715412e-02	2.9489745172e-02	8.8376258931e-04	9.7261652803e-05
107               	1.6717901115e-03	1.2871693980e-02	2.9214361770e-02	8.4822553223e-04	9.3456295934e-05
108               	1.6314000621e-03	1.2626669094e-02	2.8889802236e-02	8.1263604004e-04	8.9612986933e-05
109               	1.5932573489e-03	1.2461314551e-02	2.8611594288e-02	7.7795110319e-04	8.5926610377e-05
110               	1.5609053999e-03	1.2320840030e-02	2.8332737069e-02	7.4471090261e-04	8.2168866769e-05
111               	1.5301087898e-03	1.2141502608e-02	2.8076467892e-02	7.1150731293e-04	7.8504978038e-05
112               	1.4975867917e-03	1.2018346654e-02	2.7807884308e-02	6.7853178928e-04	7.4853861723e-05
113               	1.4630575113e-03	1.1815753328e-02	2.7515889371e-02	6.4192675608e-04	7.0519154829e-05
114               	1.4289456831e-03	1.1621262227e-02	2.7203625691e-02	6.1002052658e-04	6.7285674738e-05
115               	1.3938132590e-03	1.1425247806e-02	2.6904531848e-02	5.7791767213e-04	6.3698650292e-05
116               	1.3573481799e-03	1.1272925716e-02	2.6628645317e-02	5.4866468722e-04	6.0516404265e-05
117               	1.3235182930e-03	1.1115228654e-02	2.6337578317e-02	5.1898508757e-04	5.7290796096e-05
118               	1.2910205787e-03	1.0905014863e-02	2.6033677699e-02	4.9028250945e-04	5.4183342976e-05
119               	1.2591579488e-03	1.0793985113e-02	2.5754085698e-02	4.6305998403e-04	5.1269658338e-05
120               	1.2273532415e-03	1.0684448370e-02	2.5490554042e-02	4.3662177489e-04	4.8447799981e-05
121               	1.1908923588e-03	1.0520501324e-02	2.5206047216e-02	4.0908314456e-04	4.5393232468e-05
122               	1.1548589691e-03	1.0320492635e-02	2.4906304173e-02	3.8360202405e-04	4.2633847438e-05
123               	1.1192536483e-03	1.0149328580e-02	2.4598617442e-02	3.5938433770e-04	4.0017680205e-05
124               	1.0898285536e-03	9.9955995736e-03	2.4326951478e-02	3.3832246891e-04	3.7697963456e-05
125               	1.0652714290e-03	9.8635950141e-03	2.4081506467e-02	3.1848822821e-04	3.5498423988e-05
126               	1.0437289988e-03	9.8156643726e-03	2.3865607986e-02	2.9901078307e-04	3.3317657540e-05
127               	1.0186180976e-03	9.6883938546e-03	2.3635693934e-02	2.7982746979e-04	3.1345050523e-05
128               	9.9397381324e-04	9.5713339471e-03	2.3396482071e-02	2.6146810875e-04	2.9319703598e-05
129               	9.7071257128e-04	9.4217450085e-03	2.3134261843e-02	2.4530440927e-04	2.7493186254e-05
130               	9.4924400657e-04	9.3317272607e-03	2.2858359385e-02	2.3021737106e-04	2.5716486384e-05
131               	9.2734386509e-04	9.1341257186e-03	2.2577288346e-02	2.1054505709e-04	2.3405545152e-05
132               	9.0589958127e-04	8.9816755099e-03	2.2330782448e-02	1.9763741529e-04	2.2051006981e-05
133               	8.8692639220e-04	8.8532111151e-03	2.2109297270e-02	1.8783487307e-04	2.0920328756e-05
134               	8.6830625341e-04	8.7696417151e-03	2.1899529293e-02	1.7661705607e-04	1.9491265995e-05
135               	8.4941410590e-04	8.6554406970e-03	2.1702343268e-02	1.6411462517e-04	1.8072665568e-05
136               	8.3192138986e-04	8.5233426876e-03	2.1505797483e-02	1.5425328366e-04	1.6970544977e-05
137               	8.1528519055e-04	8.4349335432e-03	2.1293729184e-02	1.4670788452e-04	1.6013744959e-05
138               	8.0148225539e-04	8.2848628542e-03	2.1091938019e-02	1.3973023202e-04	1.5182820482e-05
139               	7.8811038195e-04	8.1166303052e-03	2.0875672678e-02	1.3171891959e-04	1.4209658148e-05
140               	7.7382459262e-04	8.0032132439e-03	2.0665674691e-02	1.2430413347e-04	1.3342444763e-05
141               	7.6012963836e-04	7.9217686508e-03	2.0457793763e-02	1.1822416757e-04	1.2690981589e-05
142               	7.4530952302e-04	7.8296360446e-03	2.0223635541e-02	1.1325344462e-04	1.2139959121e-05
143               	7.3019668472e-04	7.8143402126e-03	2.0000561796e-02	1.0851942008e-04	1.1630177253e-05
144               	7.1541316915e-04	7.7415743606e-03	1.9778870103e-02	1.0212595615e-04	1.0885202237e-05
145               	7.0443574306e-04	7.6283839168e-03	1.9568105204e-02	9.8840151810e-05	1.0621902769e-05
146               	6.9439884323e-04	7.5341878129e-03	1.9369480093e-02	9.6037886963e-05	1.0369167456e-05
147               	6.8577476891e-04	7.5158446733e-03	1.9153733325e-02	9.4148192214e-05	1.0185769779e-05
148               	6.7594425542e-04	7.4462576872e-03	1.8934878451e-02	9.1500321951e-05	9.9420828344e-06
149               	6.6728869663e-04	7.3572818886e-03	1.8755054727e-02	8.8837785853e-05	9.6298083407e-06
150               	6.5956235840e-04	7.2043462095e-03	1.8588534132e-02	8.5860958041e-05	9.3500575177e-06
151               	6.5208916637e-04	7.0842465473e-03	1.8388208771e-02	8.3800632202e-05	9.2115302831e-06
152               	6.4307828208e-04	7.0027898317e-03	1.8184520961e-02	8.1347584551e-05	8.9336336465e-06
153               	6.3237172922e-04	6.9598129889e-03	1.7971040317e-02	7.9154743744e-05	8.6679264874e-06
154               	6.2202828445e-04	6.8461456742e-03	1.7768688007e-02	7.6064928194e-05	8.2657036855e-06
155               	6.1192842411e-04	6.7388979184e-03	1.7574653607e-02	7.4104357218e-05	8.0006097001e-06
156               	6.0468751799e-04	6.6478471581e-03	1.7363715265e-02	7.2647620028e-05	7.8044295631e-06
157               	5.9840435624e-04	6.5367028104e-03	1.7160815504e-02	7.1111289829e-05	7.6065398087e-06
158               	5.9353149623e-04	6.4501481249e-03	1.6956564038e-02	6.9811868441e-05	7.4444161447e-06
159               	5.8550923387e-04	6.3681897030e-03	1.6765274973e-02	6.9047810531e-05	7.3931876323e-06
160               	5.7756786395e-04	6.3524066602e-03	1.6583672571e-02	6.8203542299e-05	7.2451246945e-06
161               	5.6854456989e-04	6.2968084696e-03	1.6407319433e-02	6.6839556636e-05	7.0337253314e-06
162               	5.6132220422e-04	6.2197699826e-03	1.6225029080e-02	6.5101735945e-05	6.9032911802e-06
163               	5.5388318504e-04	6.1232395799e-03	1.6057412763e-02	6.3834648463e-05	6.8770114791e-06
164               	5.4571445042e-04	6.0485695313e-03	1.5885863481e-02	6.3005610354e-05	6.8567073323e-06
165               	5.3936823631e-04	5.9908821842e-03	1.5710086038e-02	6.1460338846e-05	6.6921972025e-06
166               	5.3383997284e-04	5.9119022859e-03	1.5543575100e-02	5.9410305604e-05	6.4468331586e-06
167               	5.2788520130e-04	5.8525350069e-03	1.5363808953e-02	5.7515130837e-05	6.2989203869e-06
168               	5.2198488130e-04	5.7531684276e-03	1.5187413312e-02	5.6668957121e-05	6.2495467976e-06
169               	5.1670749923e-04	5.6738402604e-03	1.5007225018e-02	5.5566443415e-05	6.1123789749e-06
170               	5.1175087018e-04	5.6131928303e-03	1.4847565009e-02	5.4079471157e-05	5.9796522231e-06
171               	5.0563799842e-04	5.5540165581e-03	1.4705937633e-02	5.2920525099e-05	5.8733798746e-06
172               	4.9852806899e-04	5.4975261907e-03	1.4564912617e-02	5.1961572937e-05	5.7832640689e-06
173               	4.9188553707e-04	5.3801248862e-03	1.4418548303e-02	5.0299348018e-05	5.6075137967e-06
174               	4.8640823655e-04	5.2940416211e-03	1.4256631264e-02	4.9166961130e-05	5.4795703199e-06
175               	4.8043899091e-04	5.2317055259e-03	1.4086087371e-02	4.7618783996e-05	5.3198045616e-06
176               	4.7461273866e-04	5.1689421895e-03	1.3929563896e-02	4.5853740848e-05	5.1118590875e-06
177               	4.6907657701e-04	5.1016610049e-03	1.3764333125e-02	4.4204700881e-05	4.9707512425e-06
178               	4.6241707967e-04	5.0541857263e-03	1.3617838779e-02	4.3041693614e-05	4.8479182295e-06
179               	4.5656473017e-04	4.9865695233e-03	1.3471304892e-02	4.1510493427e-05	4.6595845788e-06
180               	4.5075492723e-04	4.9161483712e-03	1.3324446923e-02	4.0312245160e-05	4.5350009129e-06
181               	4.4465493363e-04	4.8696038015e-03	1.3185690440e-02	3.9783651957e-05	4.4927699544e-06
182               	4.3868306279e-04	4.8227407349e-03	1.3050963296e-02	3.8838284323e-05	4.3905191067e-06
183               	4.3299839383e-04	4.7830681146e-03	1.2918333078e-02	3.7590623670e-05	4.2542437949e-06
184               	4.2796047608e-04	4.7091551086e-03	1.2800082431e-02	3.6595335293e-05	4.1692000243e-06
185               	4.2316109204e-04	4.6209174085e-03	1.2653394499e-02	3.6361219433e-05	4.1984848335e-06
186               	4.1769263800e-04	4.5885418209e-03	1.2505109387e-02	3.6229590814e-05	4.1651286196e-06
187               	4.1270406943e-04	4.5589974189e-03	1.2350899879e-02	3.5701879867e-05	4.0953875125e-06
188               	4.0833836793e-04	4.5252896151e-03	1.2206952164e-02	3.4798316766e-05	4.0057904777e-06
189               	4.0396465063e-04	4.4502280166e-03	1.2063538306e-02	3.4175772412e-05	3.9608437162e-06
190               	3.9940475396e-04	4.3998847331e-03	1.1921548215e-02	3.3294350496e-05	3.8620812372e-06
191               	3.9473998933e-04	4.3352015562e-03	1.1763688252e-02	3.2933985732e-05	3.8213114312e-06
192               	3.9045153476e-04	4.2859748121e-03	1.1621011680e-02	3.2357194081e-05	3.7548228564e-06
193               	3.8646992116e-04	4.2207667753e-03	1.1489226586e-02	3.1471554917e-05	3.6478060126e-06
194               	3.8224845602e-04	4.1494333671e-03	1.1356399109e-02	3.0702921942e-05	3.5913237261e-06
195               	3.7698769827e-04	4.0990922502e-03	1.1220301928e-02	3.0193900432e-05	3.5266886330e-06
196               	3.7186848796e-04	4.0520495827e-03	1.1088980582e-02	2.9815576753e-05	3.4781543522e-06
197               	3.6720780281e-04	4.0009804555e-03	1.0967287447e-02	2.8891453737e-05	3.3397002439e-06
198               	3.6267356544e-04	3.9419720921e-03	1.0836957263e-02	2.8275550048e-05	3.2584408113e-06
199               	3.5857255867e-04	3.8936305046e-03	1.0711617792e-02	2.7729719532e-05	3.1775265684e-06
200               	3.5412148041e-04	3.8424966001e-03	1.0584267251e-02	2.7254859767e-05	3.1470776090e-06
201               	3.4922197972e-04	3.8068683305e-03	1.0466587256e-02	2.6913271286e-05	3.1168661401e-06
202               	3.4435067035e-04	3.7811943493e-03	1.0333719422e-02	2.6513787556e-05	3.0612277757e-06
203               	3.4016911116e-04	3.7538615118e-03	1.0207130274e-02	2.6282909430e-05	3.0285337259e-06
204               	3.3640236788e-04	3.7245681312e-03	1.0099642062e-02	2.5743329467e-05	2.9504077450e-06
205               	3.3260134531e-04	3.6417047981e-03	9.9874931727e-03	2.5332797279e-05	2.9189751866e-06
206               	3.2928158970e-04	3.5946612737e-03	9.8789794871e-03	2.5212874075e-05	2.9220868968e-06
207               	3.2520706340e-04	3.5561179613e-03	9.7799621420e-03	2.4914244513e-05	2.8869642235e-06
208               	3.2111537262e-04	3.5120287779e-03	9.6670172940e-03	2.4382328324e-05	2.8325990974e-06
209               	3.1754760844e-04	3.4621586314e-03	9.5639969848e-03	2.4245626857e-05	2.8344405637e-06
210               	3.1424562501e-04	3.4263961671e-03	9.4567622925e-03	2.4184389272e-05	2.8233246484e-06
211               	3.1103312234e-04	3.3977901041e-03	9.3389072535e-03	2.3625341547e-05	2.7499172371e-06
212               	3.0890149066e-04	3.3445808504e-03	9.2187387668e-03	2.2993295097e-05	2.6691738149e-06
213               	3.0669988876e-04	3.2952217665e-03	9.1060418583e-03	2.2634677921e-05	2.6387022258e-06
214               	3.0447204549e-04	3.2551235732e-03	8.9974705764e-03	2.2432079309e-05	2.6274046488e-06
215               	3.0195228209e-04	3.2139214168e-03	8.8976246092e-03	2.2014687765e-05	2.5756880689e-06
216               	2.9881400658e-04	3.1796952339e-03	8.7997779564e-03	2.1432871931e-05	2.5050143407e-06
217               	2.9476938762e-04	3.1379005156e-03	8.7148210067e-03	2.0899146986e-05	2.4479952990e-06
218               	2.9052175172e-04	3.0938472149e-03	8.6333685351e-03	2.0637064635e-05	2.4172462591e-06
219               	2.8649434957e-04	3.0503094756e-03	8.5430134798e-03	2.0096328095e-05	2.3381316160e-06
220               	2.8247814489e-04	3.0044828208e-03	8.4502829081e-03	1.9422932209e-05	2.2579395197e-06
221               	2.7810425316e-04	2.9648798257e-03	8.3534685441e-03	1.8800719705e-05	2.1856786665e-06
222               	2.7445211414e-04	2.9247444547e-03	8.2630386274e-03	1.8340907380e-05	2.1246990097e-06
223               	2.7198205422e-04	2.8925039653e-03	8.1743140176e-03	1.7962148247e-05	2.0730643569e-06
224               	2.6886900984e-04	2.8646912658e-03	8.0866783339e-03	1.7697593142e-05	2.0353785139e-06
225               	2.6521430130e-04	2.8278585797e-03	7.9876800949e-03	1.7504805227e-05	2.0128957688e-06
226               	2.6185115959e-04	2.8042467335e-03	7.8931291746e-03	1.7314730225e-05	1.9865979169e-06
227               	2.5927508615e-04	2.7758314403e-03	7.8051744947e-03	1.7153711353e-05	1.9697642770e-06
228               	2.5668817720e-04	2.7339142837e-03	7.7151366865e-03	1.7122505344e-05	1.9778214828e-06
229               	2.5358673411e-04	2.7088378081e-03	7.6169615901e-03	1.7047656249e-05	1.9876645357e-06
230               	2.5081120079e-04	2.6747911402e-03	7.5195310387e-03	1.6867282185e-05	1.9712064201e-06
231               	2.4784033716e-04	2.6532133575e-03	7.4242881492e-03	1.6713974553e-05	1.9598407776e-06
232               	2.4452235600e-04	2.6328844392e-03	7.3297754352e-03	1.6339568468e-05	1.9083430563e-06
233               	2.4132517049e-04	2.5969973312e-03	7.2396870387e-03	1.6154688921e-05	1.9006375714e-06
234               	2.3872411175e-04	2.5569951382e-03	7.1500926371e-03	1.6081074262e-05	1.8884936368e-06
235               	2.3603285951e-04	2.5221555355e-03	7.0601792666e-03	1.5946197466e-05	1.8654982681e-06
236               	2.3368143885e-04	2.4835417413e-03	6.9759422163e-03	1.5700582982e-05	1.8329635791e-06
237               	2.3100166667e-04	2.4510824694e-03	6.8976872574e-03	1.5419824299e-05	1.8096511090e-06
238               	2.2800389660e-04	2.4200448895e-03	6.8171768992e-03	1.5226990460e-05	1.7940267579e-06
239               	2.2475940024e-04	2.3828540195e-03	6.7355553430e-03	1.4901727478e-05	1.7524114675e-06
240               	2.2218092051e-04	2.3491558809e-03	6.6623103356e-03	1.4499747147e-05	1.7019814990e-06
241               	2.1968280832e-04	2.3228947169e-03	6.5919589000e-03	1.4204289680e-05	1.6638848271e-06
242               	2.1714120281e-04	2.2913115607e-03	6.5184921609e-03	1.3904455648e-05	1.6192020193e-06
243               	2.1448171773e-04	2.2630521544e-03	6.4421599062e-03	1.3632794517e-05	1.5853718885e-06
244               	2.1240409523e-04	2.2480299306e-03	6.3690257849e-03	1.3255094175e-05	1.5408830051e-06
245               	2.0995772843e-04	2.2277259078e-03	6.3005716503e-03	1.2922111775e-05	1.5038915402e-06
246               	2.0742011501e-04	2.1917362554e-03	6.2295076948e-03	1.2637569556e-05	1.4671721957e-06
247               	2.0521111874e-04	2.1568938630e-03	6.1591415940e-03	1.2420689686e-05	1.4345139737e-06
248               	2.0299701685e-04	2.1288455399e-03	6.0887956074e-03	1.2193815377e-05	1.4036352581e-06
249               	2.0070340312e-04	2.1013919640e-03	6.0168581738e-03	1.2027292636e-05	1.3896988618e-06
250               	1.9817836738e-04	2.0738950636e-03	5.9466752024e-03	1.2076447255e-05	1.3733535381e-06
251               	1.9474757899e-04	2.0381790418e-03	5.8675293473e-03	1.2091471757e-05	1.3876899622e-06
252               	1.9214241005e-04	2.0098574108e-03	5.7956186250e-03	1.1965003241e-05	1.3944792493e-06
253               	1.8978800576e-04	1.9931916872e-03	5.7234222409e-03	1.1749926042e-05	1.3780503760e-06
254               	1.8741805036e-04	1.9806050851e-03	5.6492613901e-03	1.1550344688e-05	1.3500189488e-06
255               	1.8566916677e-04	1.9606900347e-03	5.5804782490e-03	1.1336980242e-05	1.3187559086e-06
256               	1.8379539726e-04	1.9337552732e-03	5.5161953098e-03	1.1197897732e-05	1.3000882168e-06
257               	1.8203315233e-04	1.8996558069e-03	5.4552033890e-03	1.1131081355e-05	1.3014769599e-06
258               	1.8009950725e-04	1.8799121762e-03	5.3965646206e-03	1.1102157539e-05	1.2995465714e-06
259               	1.7838005347e-04	1.8596208411e-03	5.3361404016e-03	1.0920485454e-05	1.2790909773e-06
260               	1.7661139873e-04	1.8315290548e-03	5.2796225078e-03	1.0732070069e-05	1.2586365922e-06
261               	1.7450301234e-04	1.8077246779e-03	5.2238759814e-03	1.0580635410e-05	1.2423488440e-06
262               	1.7246299014e-04	1.7891195313e-03	5.1630551277e-03	1.0513174214e-05	1.2333149366e-06
263               	1.7100791533e-04	1.7682344072e-03	5.1010304695e-03	1.0381179877e-05	1.2120736518e-06
264               	1.6946238245e-04	1.7471173685e-03	5.0397675754e-03	1.0241748425e-05	1.2008190453e-06
265               	1.6750464337e-04	1.7224842522e-03	4.9751812067e-03	1.0075633456e-05	1.1882561644e-06
266               	1.6555474973e-04	1.7041218611e-03	4.9084879235e-03	9.9391766465e-06	1.1731285315e-06
267               	1.6367039463e-04	1.6895331281e-03	4.8459170454e-03	9.7617737293e-06	1.1503153015e-06
268               	1.6166996127e-04	1.6700846027e-03	4.7850916622e-03	9.5311330321e-06	1.1224293877e-06
269               	1.5962035818e-04	1.6498817052e-03	4.7237779501e-03	9.2717161910e-06	1.0982739983e-06
270               	1.5748414526e-04	1.6225146666e-03	4.6664243914e-03	9.0405848967e-06	1.0692670982e-06
271               	1.5559920091e-04	1.5996194802e-03	4.6099707957e-03	8.8757781815e-06	1.0383808148e-06
272               	1.5394149953e-04	1.5772235500e-03	4.5512219337e-03	8.6975253742e-06	1.0058649879e-06
273               	1.5231779259e-04	1.5592528107e-03	4.4982950745e-03	8.5268550260e-06	9.7696519897e-07
274               	1.5054072491e-04	1.5396658918e-03	4.4466981793e-03	8.4075871243e-06	9.5711471974e-07
275               	1.4879103579e-04	1.5139967436e-03	4.3910850143e-03	8.2859488731e-06	9.3783174489e-07
276               	1.4720459871e-04	1.4945056219e-03	4.3383929028e-03	8.1916183918e-06	9.2490017696e-07
277               	1.4544565216e-04	1.4729013962e-03	4.2900986255e-03	8.1169006068e-06	9.2041706501e-07
278               	1.4337280229e-04	1.4575735538e-03	4.2438162977e-03	8.0356333522e-06	9.1298081809e-07
279               	1.4131911660e-04	1.4447776630e-03	4.1912462065e-03	7.9133526365e-06	8.9774942577e-07
280               	1.3956666028e-04	1.4285191941e-03	4.1375314527e-03	7.8503949191e-06	8.8764157169e-07
281               	1.3795657118e-04	1.4144736804e-03	4.0898411674e-03	7.8028481735e-06	8.8400295372e-07
282               	1.3644764279e-04	1.3966708684e-03	4.0447413358e-03	7.7588845460e-06	8.8251715896e-07
283               	1.3525515206e-04	1.3873401349e-03	4.0018577532e-03	7.7305888681e-06	8.8605084011e-07
284               	1.3397390282e-04	1.3708542823e-03	3.9599258535e-03	7.6018751100e-06	8.7430266494e-07
285               	1.3268570321e-04	1.3505591551e-03	3.9149009873e-03	7.5277831202e-06	8.6945990535e-07
286               	1.3137753139e-04	1.3292856321e-03	3.8703579444e-03	7.4984433996e-06	8.6749819088e-07